
     Program PWSCF v.4.3.2      starts on 26Mar2012 at 17:50:33 

     This program is part of the open-source Quantum ESPRESSO suite
     for quantum simulation of materials; please cite
         "P. Giannozzi et al., J. Phys.:Condens. Matter 21 395502 (2009);
          URL http://www.quantum-espresso.org", 
     in publications or presentations arising from this work. More details at
     http://www.quantum-espresso.org/wiki/index.php/Citing_Quantum-ESPRESSO

     Current dimensions of program PWSCF are:
     Max number of different atomic species (ntypx) = 10
     Max number of k-points (npk) =  40000
     Max angular momentum in pseudopotentials (lmaxx) =  3
     Waiting for input...
     Reading input from stdin
     warning: symmetry operation #  5 not allowed.   fractional translation:
       0.2000000  0.2000000  0.3000000  in crystal coordinates
     warning: symmetry operation #  6 not allowed.   fractional translation:
       0.2000000  0.2000000  0.3000000  in crystal coordinates
     warning: symmetry operation # 25 not allowed.   fractional translation:
       0.2000000  0.2000000  0.3000000  in crystal coordinates
     warning: symmetry operation # 26 not allowed.   fractional translation:
       0.2000000  0.2000000  0.3000000  in crystal coordinates

     G-vector sticks info
     --------------------
     sticks:   dense  smooth     PW     G-vecs:    dense   smooth      PW
     Sum         379     379    121                 4909     4909     893



     bravais-lattice index     =            2
     lattice parameter (alat)  =       6.7400  a.u.
     unit-cell volume          =      76.5455 (a.u.)^3
     number of atoms/cell      =            2
     number of atomic types    =            1
     number of electrons       =         8.00
     number of Kohn-Sham states=            4
     kinetic-energy cutoff     =      60.0000  Ry
     charge density cutoff     =     240.0000  Ry
     convergence threshold     =      1.0E-06
     mixing beta               =       0.7000
     number of iterations used =            8  plain     mixing
     Exchange-correlation      =  SLA  PZ   NOGX NOGC ( 1 1 0 0 0)
     EXX-fraction              =        0.00

     celldm(1)=   6.740000  celldm(2)=   0.000000  celldm(3)=   0.000000
     celldm(4)=   0.000000  celldm(5)=   0.000000  celldm(6)=   0.000000

     crystal axes: (cart. coord. in units of alat)
               a(1) = (  -0.500000   0.000000   0.500000 )  
               a(2) = (   0.000000   0.500000   0.500000 )  
               a(3) = (  -0.500000   0.500000   0.000000 )  

     reciprocal axes: (cart. coord. in units 2 pi/alat)
               b(1) = ( -1.000000 -1.000000  1.000000 )  
               b(2) = (  1.000000  1.000000  1.000000 )  
               b(3) = ( -1.000000  1.000000 -1.000000 )  


     PseudoPot. # 1 for  C read from file:
     /home/sam/Documents/espresso-4.3.2/pseudo/C.pz-kjpaw.UPF
     MD5 check sum: 414e6e825ae75add557e798061b49a04
     Pseudo is Projector augmented-wave + core cor, Zval =  4.0
     Generated using "atomic" code by A. Dal Corso (espresso distribution)
     Shape of augmentation charge: BESSEL
     Using radial grid of 1073 points,  4 beta functions with: 
                l(1) =   0
                l(2) =   0
                l(3) =   1
                l(4) =   1
     Q(r) pseudized with 0 coefficients 


     atomic species   valence    mass     pseudopotential
        C              4.00    12.01070      C( 1.00)

      4 Sym.Ops. (no inversion)


   Cartesian axes

     site n.     atom                  positions (alat units)
         1           C   tau(   1) = (   0.0000000   0.0000000   0.0500000  )
         2           C   tau(   2) = (   0.2500000   0.2500000   0.2500000  )

     number of k points=    18
                       cart. coord. in units 2pi/alat
        k(    1) = (   0.0000000   0.0000000   0.0000000), wk =   0.0312500
        k(    2) = (  -0.2500000   0.2500000  -0.2500000), wk =   0.1250000
        k(    3) = (   0.5000000  -0.5000000   0.5000000), wk =   0.0625000
        k(    4) = (   0.0000000   0.5000000   0.0000000), wk =   0.1250000
        k(    5) = (   0.7500000  -0.2500000   0.7500000), wk =   0.2500000
        k(    6) = (   0.5000000   0.0000000   0.5000000), wk =   0.2500000
        k(    7) = (   0.0000000  -1.0000000   0.0000000), wk =   0.0625000
        k(    8) = (  -0.5000000  -1.0000000   0.0000000), wk =   0.1250000
        k(    9) = (   0.2500000   0.2500000  -0.2500000), wk =   0.1250000
        k(   10) = (  -0.5000000  -0.5000000   0.5000000), wk =   0.0625000
        k(   11) = (   0.0000000   0.0000000   0.5000000), wk =   0.0625000
        k(   12) = (  -0.2500000  -0.7500000   0.7500000), wk =   0.2500000
        k(   13) = (  -0.7500000   0.7500000  -0.2500000), wk =   0.1250000
        k(   14) = (  -0.7500000  -0.7500000   0.2500000), wk =   0.1250000
        k(   15) = (  -0.5000000   0.5000000   0.0000000), wk =   0.0625000
        k(   16) = (  -0.5000000  -0.5000000   0.0000000), wk =   0.0625000
        k(   17) = (   0.0000000   0.0000000  -1.0000000), wk =   0.0312500
        k(   18) = (   0.0000000   1.0000000  -0.5000000), wk =   0.0625000

     Dense  grid:     4909 G-vectors     FFT dimensions: (  24,  24,  24)

     Largest allocated arrays     est. size (Mb)     dimensions
        Kohn-Sham Wavefunctions         0.04 Mb     (    620,    4)
        NL pseudopotentials             0.15 Mb     (    620,   16)
        Each V/rho on FFT grid          0.21 Mb     (  13824)
        Each G-vector array             0.04 Mb     (   4909)
        G-vector shells                 0.00 Mb     (     95)
     Largest temporary arrays     est. size (Mb)     dimensions
        Auxiliary wavefunctions         0.15 Mb     (    620,   16)
        Each subspace H/S matrix        0.00 Mb     (  16,  16)
        Each <psi_i|beta_j> matrix      0.00 Mb     (     16,    4)
        Arrays for rho mixing           1.69 Mb     (  13824,   8)

     Check: negative/imaginary core charge=   -0.000009    0.000000

     Initial potential from superposition of free atoms

     starting charge    7.99993, renormalised to    8.00000
     Starting wfc are    8 atomic wfcs

     total cpu time spent up to now is        0.8 secs

     per-process dynamical memory:     4.7 Mb

     Self-consistent Calculation

     iteration #  1     ecut=    60.00 Ry     beta=0.70
     Davidson diagonalization with overlap
     ethr =  1.00E-02,  avg # of iterations =  2.9

     total cpu time spent up to now is        1.0 secs

     total energy              =     -35.54905112 Ry
     Harris-Foulkes estimate   =     -35.60824926 Ry
     estimated scf accuracy    <       0.10819857 Ry

     iteration #  2     ecut=    60.00 Ry     beta=0.70
     Davidson diagonalization with overlap
     ethr =  1.35E-03,  avg # of iterations =  2.7

     total cpu time spent up to now is        1.3 secs

     total energy              =     -35.56771423 Ry
     Harris-Foulkes estimate   =     -35.57214495 Ry
     estimated scf accuracy    <       0.00851988 Ry

     iteration #  3     ecut=    60.00 Ry     beta=0.70
     Davidson diagonalization with overlap
     ethr =  1.06E-04,  avg # of iterations =  2.8

     total cpu time spent up to now is        1.6 secs

     total energy              =     -35.57397956 Ry
     Harris-Foulkes estimate   =     -35.57487050 Ry
     estimated scf accuracy    <       0.00142625 Ry

     iteration #  4     ecut=    60.00 Ry     beta=0.70
     Davidson diagonalization with overlap
     ethr =  1.78E-05,  avg # of iterations =  2.9

     total cpu time spent up to now is        1.9 secs

     total energy              =     -35.57426877 Ry
     Harris-Foulkes estimate   =     -35.57429425 Ry
     estimated scf accuracy    <       0.00007540 Ry

     iteration #  5     ecut=    60.00 Ry     beta=0.70
     Davidson diagonalization with overlap
     ethr =  9.43E-07,  avg # of iterations =  2.8

     total cpu time spent up to now is        2.1 secs

     total energy              =     -35.57429991 Ry
     Harris-Foulkes estimate   =     -35.57431340 Ry
     estimated scf accuracy    <       0.00001940 Ry

     iteration #  6     ecut=    60.00 Ry     beta=0.70
     Davidson diagonalization with overlap
     ethr =  2.42E-07,  avg # of iterations =  3.1

     total cpu time spent up to now is        2.4 secs

     End of self-consistent calculation

          k = 0.0000 0.0000 0.0000 (   609 PWs)   bands (ev):

    -8.2436  10.4340  13.5750  15.8334

          k =-0.2500 0.2500-0.2500 (   595 PWs)   bands (ev):

    -6.5367   7.0085   9.3508  12.7894

          k = 0.5000-0.5000 0.5000 (   610 PWs)   bands (ev):

    -2.7067   0.3524   8.5366  11.8621

          k = 0.0000 0.5000 0.0000 (   592 PWs)   bands (ev):

    -5.9836   7.0843   9.2075  10.5072

          k = 0.7500-0.2500 0.7500 (   602 PWs)   bands (ev):

    -2.3680   3.0418   5.3113   8.8285

          k = 0.5000 0.0000 0.5000 (   602 PWs)   bands (ev):

    -3.8113   4.2029   5.4640  10.4906

          k = 0.0000-1.0000 0.0000 (   620 PWs)   bands (ev):

     0.2885   0.2885   7.0818   7.0818

          k =-0.5000-1.0000 0.0000 (   604 PWs)   bands (ev):

     0.5873   1.8971   4.0379   5.4790

          k = 0.2500 0.2500-0.2500 (   595 PWs)   bands (ev):

    -6.5462   5.7389  10.7710  12.9031

          k =-0.5000-0.5000 0.5000 (   610 PWs)   bands (ev):

    -2.1574  -0.9749   9.4630  11.7981

          k = 0.0000 0.0000 0.5000 (   592 PWs)   bands (ev):

    -5.9662   7.6228   8.8482   9.8059

          k =-0.2500-0.7500 0.7500 (   602 PWs)   bands (ev):

    -2.2179   1.6975   6.8378   8.6433

          k =-0.7500 0.7500-0.2500 (   602 PWs)   bands (ev):

    -2.3231   2.7386   6.9615   7.1145

          k =-0.7500-0.7500 0.2500 (   602 PWs)   bands (ev):

    -2.1996   1.9685   5.8762   9.0937

          k =-0.5000 0.5000 0.0000 (   602 PWs)   bands (ev):

    -3.8414   5.5375   5.5813   8.4132

          k =-0.5000-0.5000 0.0000 (   602 PWs)   bands (ev):

    -3.8065   3.3809   5.6939  11.4353

          k = 0.0000 0.0000-1.0000 (   620 PWs)   bands (ev):

    -0.1167   1.1287   5.7666   7.4707

          k = 0.0000 1.0000-0.5000 (   604 PWs)   bands (ev):

     1.0210   1.0210   5.0459   5.0459

!    total energy              =     -35.57430585 Ry
     Harris-Foulkes estimate   =     -35.57430566 Ry
     estimated scf accuracy    <       0.00000043 Ry

     total all-electron energy =      -151.133302 Ry

     The total energy is the sum of the following terms:

     one-electron contribution =       8.40688643 Ry
     hartree contribution      =       1.96208334 Ry
     xc contribution           =      -8.39262500 Ry
     ewald contribution        =     -25.47879239 Ry
     one-center paw contrib.   =     -12.07185823 Ry

     convergence has been achieved in   6 iterations

     Forces acting on atoms (Ry/au):

     atom    1 type  1   force =     0.00000000    0.00000000   -0.25014140
     atom    2 type  1   force =     0.00000000    0.00000000    0.25014140

     Total force =     0.353753     Total SCF correction =     0.000102

     Writing output data file diamond.save

     init_run     :      0.54s CPU      0.55s WALL (       1 calls)
     electrons    :      1.45s CPU      1.56s WALL (       1 calls)
     forces       :      0.04s CPU      0.04s WALL (       1 calls)

     Called by init_run:
     wfcinit      :      0.10s CPU      0.09s WALL (       1 calls)
     potinit      :      0.04s CPU      0.04s WALL (       1 calls)

     Called by electrons:
     c_bands      :      0.88s CPU      0.89s WALL (       6 calls)
     sum_band     :      0.21s CPU      0.21s WALL (       6 calls)
     v_of_rho     :      0.02s CPU      0.02s WALL (       7 calls)
     newd         :      0.06s CPU      0.06s WALL (       7 calls)
     mix_rho      :      0.09s CPU      0.09s WALL (       6 calls)

     Called by c_bands:
     init_us_2    :      0.06s CPU      0.05s WALL (     252 calls)
     cegterg      :      0.78s CPU      0.82s WALL (     108 calls)

     Called by *egterg:
     h_psi        :      0.74s CPU      0.77s WALL (     436 calls)
     s_psi        :      0.03s CPU      0.03s WALL (     436 calls)
     g_psi        :      0.01s CPU      0.01s WALL (     310 calls)
     cdiaghg      :      0.02s CPU      0.02s WALL (     418 calls)

     Called by h_psi:
     add_vuspsi   :      0.03s CPU      0.03s WALL (     436 calls)

     General routines
     calbec       :      0.05s CPU      0.04s WALL (     562 calls)
     fft          :      0.02s CPU      0.02s WALL (      45 calls)
     fftw         :      0.72s CPU      0.72s WALL (    3260 calls)
     davcio       :      0.00s CPU      0.01s WALL (     360 calls)


     PAW routines
     PAW_pot      :      0.22s CPU      0.21s WALL (       7 calls)
     PAW_ddot     :      0.08s CPU      0.09s WALL (      36 calls)
     PAW_symme    :      0.00s CPU      0.00s WALL (      13 calls)

     PWSCF        :     2.37s CPU         2.50s WALL


   This run was terminated on:  17:50:36  26Mar2012            

=------------------------------------------------------------------------------=
   JOB DONE.
=------------------------------------------------------------------------------=
