
     Program PWSCF v.4.3.2      starts on 26Mar2012 at 17:50:36 

     This program is part of the open-source Quantum ESPRESSO suite
     for quantum simulation of materials; please cite
         "P. Giannozzi et al., J. Phys.:Condens. Matter 21 395502 (2009);
          URL http://www.quantum-espresso.org", 
     in publications or presentations arising from this work. More details at
     http://www.quantum-espresso.org/wiki/index.php/Citing_Quantum-ESPRESSO

     Current dimensions of program PWSCF are:
     Max number of different atomic species (ntypx) = 10
     Max number of k-points (npk) =  40000
     Max angular momentum in pseudopotentials (lmaxx) =  3
     Waiting for input...
     Reading input from stdin
     warning: symmetry operation #  5 not allowed.   fractional translation:
       0.2000000  0.2000000  0.3000000  in crystal coordinates
     warning: symmetry operation #  6 not allowed.   fractional translation:
       0.2000000  0.2000000  0.3000000  in crystal coordinates
     warning: symmetry operation # 25 not allowed.   fractional translation:
       0.2000000  0.2000000  0.3000000  in crystal coordinates
     warning: symmetry operation # 26 not allowed.   fractional translation:
       0.2000000  0.2000000  0.3000000  in crystal coordinates

     G-vector sticks info
     --------------------
     sticks:   dense  smooth     PW     G-vecs:    dense   smooth      PW
     Sum         433     433    139                 5985     5985    1067



     bravais-lattice index     =            2
     lattice parameter (alat)  =       6.7400  a.u.
     unit-cell volume          =      76.5455 (a.u.)^3
     number of atoms/cell      =            2
     number of atomic types    =            1
     number of electrons       =         8.00
     number of Kohn-Sham states=            4
     kinetic-energy cutoff     =      70.0000  Ry
     charge density cutoff     =     280.0000  Ry
     convergence threshold     =      1.0E-06
     mixing beta               =       0.7000
     number of iterations used =            8  plain     mixing
     Exchange-correlation      =  SLA  PZ   NOGX NOGC ( 1 1 0 0 0)
     EXX-fraction              =        0.00

     celldm(1)=   6.740000  celldm(2)=   0.000000  celldm(3)=   0.000000
     celldm(4)=   0.000000  celldm(5)=   0.000000  celldm(6)=   0.000000

     crystal axes: (cart. coord. in units of alat)
               a(1) = (  -0.500000   0.000000   0.500000 )  
               a(2) = (   0.000000   0.500000   0.500000 )  
               a(3) = (  -0.500000   0.500000   0.000000 )  

     reciprocal axes: (cart. coord. in units 2 pi/alat)
               b(1) = ( -1.000000 -1.000000  1.000000 )  
               b(2) = (  1.000000  1.000000  1.000000 )  
               b(3) = ( -1.000000  1.000000 -1.000000 )  


     PseudoPot. # 1 for  C read from file:
     /home/sam/Documents/espresso-4.3.2/pseudo/C.pz-kjpaw.UPF
     MD5 check sum: 414e6e825ae75add557e798061b49a04
     Pseudo is Projector augmented-wave + core cor, Zval =  4.0
     Generated using "atomic" code by A. Dal Corso (espresso distribution)
     Shape of augmentation charge: BESSEL
     Using radial grid of 1073 points,  4 beta functions with: 
                l(1) =   0
                l(2) =   0
                l(3) =   1
                l(4) =   1
     Q(r) pseudized with 0 coefficients 


     atomic species   valence    mass     pseudopotential
        C              4.00    12.01070      C( 1.00)

      4 Sym.Ops. (no inversion)


   Cartesian axes

     site n.     atom                  positions (alat units)
         1           C   tau(   1) = (   0.0000000   0.0000000   0.0500000  )
         2           C   tau(   2) = (   0.2500000   0.2500000   0.2500000  )

     number of k points=    18
                       cart. coord. in units 2pi/alat
        k(    1) = (   0.0000000   0.0000000   0.0000000), wk =   0.0312500
        k(    2) = (  -0.2500000   0.2500000  -0.2500000), wk =   0.1250000
        k(    3) = (   0.5000000  -0.5000000   0.5000000), wk =   0.0625000
        k(    4) = (   0.0000000   0.5000000   0.0000000), wk =   0.1250000
        k(    5) = (   0.7500000  -0.2500000   0.7500000), wk =   0.2500000
        k(    6) = (   0.5000000   0.0000000   0.5000000), wk =   0.2500000
        k(    7) = (   0.0000000  -1.0000000   0.0000000), wk =   0.0625000
        k(    8) = (  -0.5000000  -1.0000000   0.0000000), wk =   0.1250000
        k(    9) = (   0.2500000   0.2500000  -0.2500000), wk =   0.1250000
        k(   10) = (  -0.5000000  -0.5000000   0.5000000), wk =   0.0625000
        k(   11) = (   0.0000000   0.0000000   0.5000000), wk =   0.0625000
        k(   12) = (  -0.2500000  -0.7500000   0.7500000), wk =   0.2500000
        k(   13) = (  -0.7500000   0.7500000  -0.2500000), wk =   0.1250000
        k(   14) = (  -0.7500000  -0.7500000   0.2500000), wk =   0.1250000
        k(   15) = (  -0.5000000   0.5000000   0.0000000), wk =   0.0625000
        k(   16) = (  -0.5000000  -0.5000000   0.0000000), wk =   0.0625000
        k(   17) = (   0.0000000   0.0000000  -1.0000000), wk =   0.0312500
        k(   18) = (   0.0000000   1.0000000  -0.5000000), wk =   0.0625000

     Dense  grid:     5985 G-vectors     FFT dimensions: (  25,  25,  25)

     Largest allocated arrays     est. size (Mb)     dimensions
        Kohn-Sham Wavefunctions         0.05 Mb     (    769,    4)
        NL pseudopotentials             0.19 Mb     (    769,   16)
        Each V/rho on FFT grid          0.24 Mb     (  15625)
        Each G-vector array             0.05 Mb     (   5985)
        G-vector shells                 0.00 Mb     (    109)
     Largest temporary arrays     est. size (Mb)     dimensions
        Auxiliary wavefunctions         0.19 Mb     (    769,   16)
        Each subspace H/S matrix        0.00 Mb     (  16,  16)
        Each <psi_i|beta_j> matrix      0.00 Mb     (     16,    4)
        Arrays for rho mixing           1.91 Mb     (  15625,   8)

     Check: negative/imaginary core charge=   -0.000009    0.000000

     Initial potential from superposition of free atoms

     starting charge    7.99993, renormalised to    8.00000
     Starting wfc are    8 atomic wfcs

     total cpu time spent up to now is        0.9 secs

     per-process dynamical memory:     5.1 Mb

     Self-consistent Calculation

     iteration #  1     ecut=    70.00 Ry     beta=0.70
     Davidson diagonalization with overlap
     ethr =  1.00E-02,  avg # of iterations =  2.9

     total cpu time spent up to now is        1.2 secs

     total energy              =     -35.54864126 Ry
     Harris-Foulkes estimate   =     -35.60760492 Ry
     estimated scf accuracy    <       0.10778362 Ry

     iteration #  2     ecut=    70.00 Ry     beta=0.70
     Davidson diagonalization with overlap
     ethr =  1.35E-03,  avg # of iterations =  2.8

     total cpu time spent up to now is        1.6 secs

     total energy              =     -35.56807531 Ry
     Harris-Foulkes estimate   =     -35.57248205 Ry
     estimated scf accuracy    <       0.00845768 Ry

     iteration #  3     ecut=    70.00 Ry     beta=0.70
     Davidson diagonalization with overlap
     ethr =  1.06E-04,  avg # of iterations =  2.8

     total cpu time spent up to now is        1.9 secs

     total energy              =     -35.57421339 Ry
     Harris-Foulkes estimate   =     -35.57509087 Ry
     estimated scf accuracy    <       0.00139660 Ry

     iteration #  4     ecut=    70.00 Ry     beta=0.70
     Davidson diagonalization with overlap
     ethr =  1.75E-05,  avg # of iterations =  3.1

     total cpu time spent up to now is        2.3 secs

     total energy              =     -35.57449622 Ry
     Harris-Foulkes estimate   =     -35.57452946 Ry
     estimated scf accuracy    <       0.00009001 Ry

     iteration #  5     ecut=    70.00 Ry     beta=0.70
     Davidson diagonalization with overlap
     ethr =  1.13E-06,  avg # of iterations =  2.4

     total cpu time spent up to now is        2.6 secs

     total energy              =     -35.57451740 Ry
     Harris-Foulkes estimate   =     -35.57453002 Ry
     estimated scf accuracy    <       0.00001868 Ry

     iteration #  6     ecut=    70.00 Ry     beta=0.70
     Davidson diagonalization with overlap
     ethr =  2.33E-07,  avg # of iterations =  3.2

     total cpu time spent up to now is        2.9 secs

     End of self-consistent calculation

          k = 0.0000 0.0000 0.0000 (   749 PWs)   bands (ev):

    -8.2437  10.4340  13.5746  15.8330

          k =-0.2500 0.2500-0.2500 (   757 PWs)   bands (ev):

    -6.5367   7.0083   9.3505  12.7888

          k = 0.5000-0.5000 0.5000 (   754 PWs)   bands (ev):

    -2.7068   0.3522   8.5362  11.8617

          k = 0.0000 0.5000 0.0000 (   769 PWs)   bands (ev):

    -5.9836   7.0841   9.2071  10.5068

          k = 0.7500-0.2500 0.7500 (   758 PWs)   bands (ev):

    -2.3681   3.0415   5.3111   8.8282

          k = 0.5000 0.0000 0.5000 (   762 PWs)   bands (ev):

    -3.8113   4.2027   5.4638  10.4902

          k = 0.0000-1.0000 0.0000 (   740 PWs)   bands (ev):

     0.2884   0.2884   7.0816   7.0816

          k =-0.5000-1.0000 0.0000 (   744 PWs)   bands (ev):

     0.5873   1.8968   4.0377   5.4787

          k = 0.2500 0.2500-0.2500 (   757 PWs)   bands (ev):

    -6.5462   5.7387  10.7705  12.9027

          k =-0.5000-0.5000 0.5000 (   754 PWs)   bands (ev):

    -2.1576  -0.9749   9.4627  11.7977

          k = 0.0000 0.0000 0.5000 (   769 PWs)   bands (ev):

    -5.9663   7.6224   8.8479   9.8055

          k =-0.2500-0.7500 0.7500 (   758 PWs)   bands (ev):

    -2.2180   1.6973   6.8375   8.6430

          k =-0.7500 0.7500-0.2500 (   758 PWs)   bands (ev):

    -2.3232   2.7383   6.9612   7.1141

          k =-0.7500-0.7500 0.2500 (   758 PWs)   bands (ev):

    -2.1997   1.9683   5.8759   9.0934

          k =-0.5000 0.5000 0.0000 (   762 PWs)   bands (ev):

    -3.8415   5.5372   5.5810   8.4129

          k =-0.5000-0.5000 0.0000 (   762 PWs)   bands (ev):

    -3.8066   3.3808   5.6936  11.4349

          k = 0.0000 0.0000-1.0000 (   740 PWs)   bands (ev):

    -0.1167   1.1285   5.7664   7.4706

          k = 0.0000 1.0000-0.5000 (   744 PWs)   bands (ev):

     1.0209   1.0209   5.0456   5.0456

!    total energy              =     -35.57452272 Ry
     Harris-Foulkes estimate   =     -35.57452308 Ry
     estimated scf accuracy    <       0.00000052 Ry

     total all-electron energy =      -151.133519 Ry

     The total energy is the sum of the following terms:

     one-electron contribution =       8.40644940 Ry
     hartree contribution      =       1.96202234 Ry
     xc contribution           =      -8.39248972 Ry
     ewald contribution        =     -25.47879239 Ry
     one-center paw contrib.   =     -12.07171235 Ry

     convergence has been achieved in   6 iterations

     Forces acting on atoms (Ry/au):

     atom    1 type  1   force =     0.00000000    0.00000000   -0.25018470
     atom    2 type  1   force =     0.00000000    0.00000000    0.25018470

     Total force =     0.353815     Total SCF correction =     0.000129

     Writing output data file diamond.save

     init_run     :      0.61s CPU      0.64s WALL (       1 calls)
     electrons    :      1.92s CPU      2.04s WALL (       1 calls)
     forces       :      0.05s CPU      0.05s WALL (       1 calls)

     Called by init_run:
     wfcinit      :      0.13s CPU      0.14s WALL (       1 calls)
     potinit      :      0.04s CPU      0.04s WALL (       1 calls)

     Called by electrons:
     c_bands      :      1.28s CPU      1.29s WALL (       6 calls)
     sum_band     :      0.26s CPU      0.28s WALL (       6 calls)
     v_of_rho     :      0.03s CPU      0.03s WALL (       7 calls)
     newd         :      0.08s CPU      0.08s WALL (       7 calls)
     mix_rho      :      0.10s CPU      0.09s WALL (       6 calls)

     Called by c_bands:
     init_us_2    :      0.05s CPU      0.07s WALL (     252 calls)
     cegterg      :      1.19s CPU      1.20s WALL (     108 calls)

     Called by *egterg:
     h_psi        :      1.16s CPU      1.16s WALL (     436 calls)
     s_psi        :      0.06s CPU      0.04s WALL (     436 calls)
     g_psi        :      0.01s CPU      0.01s WALL (     310 calls)
     cdiaghg      :      0.02s CPU      0.02s WALL (     418 calls)

     Called by h_psi:
     add_vuspsi   :      0.04s CPU      0.04s WALL (     436 calls)

     General routines
     calbec       :      0.07s CPU      0.05s WALL (     562 calls)
     fft          :      0.02s CPU      0.02s WALL (      45 calls)
     fftw         :      1.13s CPU      1.13s WALL (    3274 calls)
     davcio       :      0.00s CPU      0.01s WALL (     360 calls)


     PAW routines
     PAW_pot      :      0.22s CPU      0.22s WALL (       7 calls)
     PAW_ddot     :      0.09s CPU      0.08s WALL (      36 calls)
     PAW_symme    :      0.00s CPU      0.00s WALL (      13 calls)

     PWSCF        :     2.92s CPU         3.08s WALL


   This run was terminated on:  17:50:39  26Mar2012            

=------------------------------------------------------------------------------=
   JOB DONE.
=------------------------------------------------------------------------------=
