
     Program PWSCF v.4.3.2      starts on 26Mar2012 at 17:50:42 

     This program is part of the open-source Quantum ESPRESSO suite
     for quantum simulation of materials; please cite
         "P. Giannozzi et al., J. Phys.:Condens. Matter 21 395502 (2009);
          URL http://www.quantum-espresso.org", 
     in publications or presentations arising from this work. More details at
     http://www.quantum-espresso.org/wiki/index.php/Citing_Quantum-ESPRESSO

     Current dimensions of program PWSCF are:
     Max number of different atomic species (ntypx) = 10
     Max number of k-points (npk) =  40000
     Max angular momentum in pseudopotentials (lmaxx) =  3
     Waiting for input...
     Reading input from stdin

     G-vector sticks info
     --------------------
     sticks:   dense  smooth     PW     G-vecs:    dense   smooth      PW
     Sum         559     559    163                 8801     8801    1459



     bravais-lattice index     =            2
     lattice parameter (alat)  =       6.7400  a.u.
     unit-cell volume          =      76.5455 (a.u.)^3
     number of atoms/cell      =            2
     number of atomic types    =            1
     number of electrons       =         8.00
     number of Kohn-Sham states=            4
     kinetic-energy cutoff     =      90.0000  Ry
     charge density cutoff     =     360.0000  Ry
     convergence threshold     =      1.0E-06
     mixing beta               =       0.7000
     number of iterations used =            8  plain     mixing
     Exchange-correlation      =  SLA  PZ   NOGX NOGC ( 1 1 0 0 0)
     EXX-fraction              =        0.00

     celldm(1)=   6.740000  celldm(2)=   0.000000  celldm(3)=   0.000000
     celldm(4)=   0.000000  celldm(5)=   0.000000  celldm(6)=   0.000000

     crystal axes: (cart. coord. in units of alat)
               a(1) = (  -0.500000   0.000000   0.500000 )  
               a(2) = (   0.000000   0.500000   0.500000 )  
               a(3) = (  -0.500000   0.500000   0.000000 )  

     reciprocal axes: (cart. coord. in units 2 pi/alat)
               b(1) = ( -1.000000 -1.000000  1.000000 )  
               b(2) = (  1.000000  1.000000  1.000000 )  
               b(3) = ( -1.000000  1.000000 -1.000000 )  


     PseudoPot. # 1 for  C read from file:
     /home/sam/Documents/espresso-4.3.2/pseudo/C.pz-kjpaw.UPF
     MD5 check sum: 414e6e825ae75add557e798061b49a04
     Pseudo is Projector augmented-wave + core cor, Zval =  4.0
     Generated using "atomic" code by A. Dal Corso (espresso distribution)
     Shape of augmentation charge: BESSEL
     Using radial grid of 1073 points,  4 beta functions with: 
                l(1) =   0
                l(2) =   0
                l(3) =   1
                l(4) =   1
     Q(r) pseudized with 0 coefficients 


     atomic species   valence    mass     pseudopotential
        C              4.00    12.01070      C( 1.00)

      8 Sym.Ops. (with inversion)


   Cartesian axes

     site n.     atom                  positions (alat units)
         1           C   tau(   1) = (   0.0000000   0.0000000   0.0500000  )
         2           C   tau(   2) = (   0.2500000   0.2500000   0.2500000  )

     number of k points=    18
                       cart. coord. in units 2pi/alat
        k(    1) = (   0.0000000   0.0000000   0.0000000), wk =   0.0312500
        k(    2) = (  -0.2500000   0.2500000  -0.2500000), wk =   0.1250000
        k(    3) = (   0.5000000  -0.5000000   0.5000000), wk =   0.0625000
        k(    4) = (   0.0000000   0.5000000   0.0000000), wk =   0.1250000
        k(    5) = (   0.7500000  -0.2500000   0.7500000), wk =   0.2500000
        k(    6) = (   0.5000000   0.0000000   0.5000000), wk =   0.2500000
        k(    7) = (   0.0000000  -1.0000000   0.0000000), wk =   0.0625000
        k(    8) = (  -0.5000000  -1.0000000   0.0000000), wk =   0.1250000
        k(    9) = (  -0.2500000  -0.2500000  -0.2500000), wk =   0.1250000
        k(   10) = (   0.5000000   0.5000000   0.5000000), wk =   0.0625000
        k(   11) = (   0.0000000   0.0000000   0.5000000), wk =   0.0625000
        k(   12) = (   0.7500000   0.2500000   0.7500000), wk =   0.2500000
        k(   13) = (  -0.7500000   0.7500000  -0.2500000), wk =   0.1250000
        k(   14) = (  -0.7500000  -0.7500000   0.2500000), wk =   0.1250000
        k(   15) = (  -0.5000000   0.5000000   0.0000000), wk =   0.0625000
        k(   16) = (  -0.5000000  -0.5000000   0.0000000), wk =   0.0625000
        k(   17) = (   0.0000000   0.0000000  -1.0000000), wk =   0.0312500
        k(   18) = (   0.0000000   1.0000000  -0.5000000), wk =   0.0625000

     Dense  grid:     8801 G-vectors     FFT dimensions: (  30,  30,  30)

     Largest allocated arrays     est. size (Mb)     dimensions
        Kohn-Sham Wavefunctions         0.07 Mb     (   1124,    4)
        NL pseudopotentials             0.27 Mb     (   1124,   16)
        Each V/rho on FFT grid          0.41 Mb     (  27000)
        Each G-vector array             0.07 Mb     (   8801)
        G-vector shells                 0.00 Mb     (    140)
     Largest temporary arrays     est. size (Mb)     dimensions
        Auxiliary wavefunctions         0.27 Mb     (   1124,   16)
        Each subspace H/S matrix        0.00 Mb     (  16,  16)
        Each <psi_i|beta_j> matrix      0.00 Mb     (     16,    4)
        Arrays for rho mixing           3.30 Mb     (  27000,   8)

     Check: negative/imaginary core charge=   -0.000002    0.000000

     Initial potential from superposition of free atoms

     starting charge    7.99993, renormalised to    8.00000
     Starting wfc are    8 atomic wfcs

     total cpu time spent up to now is        1.0 secs

     per-process dynamical memory:     6.8 Mb

     Self-consistent Calculation

     iteration #  1     ecut=    90.00 Ry     beta=0.70
     Davidson diagonalization with overlap
     ethr =  1.00E-02,  avg # of iterations =  2.8

     total cpu time spent up to now is        1.4 secs

     total energy              =     -35.54848685 Ry
     Harris-Foulkes estimate   =     -35.60717791 Ry
     estimated scf accuracy    <       0.10729559 Ry

     iteration #  2     ecut=    90.00 Ry     beta=0.70
     Davidson diagonalization with overlap
     ethr =  1.34E-03,  avg # of iterations =  2.8

     total cpu time spent up to now is        1.9 secs

     total energy              =     -35.56814784 Ry
     Harris-Foulkes estimate   =     -35.57261251 Ry
     estimated scf accuracy    <       0.00855398 Ry

     iteration #  3     ecut=    90.00 Ry     beta=0.70
     Davidson diagonalization with overlap
     ethr =  1.07E-04,  avg # of iterations =  2.7

     total cpu time spent up to now is        2.4 secs

     total energy              =     -35.57427582 Ry
     Harris-Foulkes estimate   =     -35.57515978 Ry
     estimated scf accuracy    <       0.00140535 Ry

     iteration #  4     ecut=    90.00 Ry     beta=0.70
     Davidson diagonalization with overlap
     ethr =  1.76E-05,  avg # of iterations =  3.0

     total cpu time spent up to now is        2.9 secs

     total energy              =     -35.57456387 Ry
     Harris-Foulkes estimate   =     -35.57459622 Ry
     estimated scf accuracy    <       0.00008751 Ry

     iteration #  5     ecut=    90.00 Ry     beta=0.70
     Davidson diagonalization with overlap
     ethr =  1.09E-06,  avg # of iterations =  2.4

     total cpu time spent up to now is        3.4 secs

     total energy              =     -35.57458207 Ry
     Harris-Foulkes estimate   =     -35.57459491 Ry
     estimated scf accuracy    <       0.00001778 Ry

     iteration #  6     ecut=    90.00 Ry     beta=0.70
     Davidson diagonalization with overlap
     ethr =  2.22E-07,  avg # of iterations =  3.1

     total cpu time spent up to now is        3.9 secs

     End of self-consistent calculation

          k = 0.0000 0.0000 0.0000 (  1067 PWs)   bands (ev):

    -8.2437  10.4342  13.5747  15.8331

          k =-0.2500 0.2500-0.2500 (  1095 PWs)   bands (ev):

    -6.5368   7.0084   9.3507  12.7889

          k = 0.5000-0.5000 0.5000 (  1104 PWs)   bands (ev):

    -2.7067   0.3522   8.5365  11.8618

          k = 0.0000 0.5000 0.0000 (  1094 PWs)   bands (ev):

    -5.9837   7.0843   9.2072  10.5069

          k = 0.7500-0.2500 0.7500 (  1102 PWs)   bands (ev):

    -2.3681   3.0415   5.3113   8.8283

          k = 0.5000 0.0000 0.5000 (  1117 PWs)   bands (ev):

    -3.8114   4.2028   5.4639  10.4903

          k = 0.0000-1.0000 0.0000 (  1106 PWs)   bands (ev):

     0.2885   0.2885   7.0817   7.0817

          k =-0.5000-1.0000 0.0000 (  1124 PWs)   bands (ev):

     0.5874   1.8968   4.0377   5.4787

          k =-0.2500-0.2500-0.2500 (  1095 PWs)   bands (ev):

    -6.5463   5.7388  10.7707  12.9028

          k = 0.5000 0.5000 0.5000 (  1104 PWs)   bands (ev):

    -2.1576  -0.9748   9.4629  11.7979

          k = 0.0000 0.0000 0.5000 (  1094 PWs)   bands (ev):

    -5.9663   7.6226   8.8480   9.8057

          k = 0.7500 0.2500 0.7500 (  1102 PWs)   bands (ev):

    -2.2180   1.6974   6.8376   8.6431

          k =-0.7500 0.7500-0.2500 (  1102 PWs)   bands (ev):

    -2.3232   2.7384   6.9614   7.1142

          k =-0.7500-0.7500 0.2500 (  1102 PWs)   bands (ev):

    -2.1997   1.9684   5.8760   9.0935

          k =-0.5000 0.5000 0.0000 (  1117 PWs)   bands (ev):

    -3.8415   5.5374   5.5810   8.4132

          k =-0.5000-0.5000 0.0000 (  1117 PWs)   bands (ev):

    -3.8067   3.3810   5.6936  11.4350

          k = 0.0000 0.0000-1.0000 (  1106 PWs)   bands (ev):

    -0.1166   1.1283   5.7666   7.4707

          k = 0.0000 1.0000-0.5000 (  1124 PWs)   bands (ev):

     1.0210   1.0210   5.0457   5.0457

!    total energy              =     -35.57458766 Ry
     Harris-Foulkes estimate   =     -35.57458774 Ry
     estimated scf accuracy    <       0.00000061 Ry

     total all-electron energy =      -151.133584 Ry

     The total energy is the sum of the following terms:

     one-electron contribution =       8.40637173 Ry
     hartree contribution      =       1.96198343 Ry
     xc contribution           =      -8.39245451 Ry
     ewald contribution        =     -25.47879239 Ry
     one-center paw contrib.   =     -12.07169593 Ry

     convergence has been achieved in   6 iterations

     Forces acting on atoms (Ry/au):

     atom    1 type  1   force =     0.00000000    0.00000000   -0.25024476
     atom    2 type  1   force =     0.00000000    0.00000000    0.25024476

     Total force =     0.353900     Total SCF correction =     0.000201

     Writing output data file diamond.save

     init_run     :      0.75s CPU      0.77s WALL (       1 calls)
     electrons    :      2.74s CPU      2.84s WALL (       1 calls)
     forces       :      0.08s CPU      0.08s WALL (       1 calls)

     Called by init_run:
     wfcinit      :      0.19s CPU      0.19s WALL (       1 calls)
     potinit      :      0.04s CPU      0.05s WALL (       1 calls)

     Called by electrons:
     c_bands      :      1.88s CPU      1.97s WALL (       6 calls)
     sum_band     :      0.42s CPU      0.42s WALL (       6 calls)
     v_of_rho     :      0.05s CPU      0.05s WALL (       7 calls)
     newd         :      0.11s CPU      0.12s WALL (       7 calls)
     mix_rho      :      0.10s CPU      0.10s WALL (       6 calls)

     Called by c_bands:
     init_us_2    :      0.08s CPU      0.10s WALL (     252 calls)
     cegterg      :      1.80s CPU      1.78s WALL (     108 calls)

     Called by *egterg:
     h_psi        :      1.76s CPU      1.70s WALL (     429 calls)
     s_psi        :      0.04s CPU      0.06s WALL (     429 calls)
     g_psi        :      0.02s CPU      0.02s WALL (     303 calls)
     cdiaghg      :      0.04s CPU      0.02s WALL (     411 calls)

     Called by h_psi:
     add_vuspsi   :      0.08s CPU      0.06s WALL (     429 calls)

     General routines
     calbec       :      0.09s CPU      0.08s WALL (     555 calls)
     fft          :      0.02s CPU      0.04s WALL (      45 calls)
     fftw         :      1.67s CPU      1.63s WALL (    3272 calls)
     davcio       :      0.00s CPU      0.08s WALL (     360 calls)


     PAW routines
     PAW_pot      :      0.22s CPU      0.21s WALL (       7 calls)
     PAW_ddot     :      0.08s CPU      0.09s WALL (      36 calls)
     PAW_symme    :      0.00s CPU      0.00s WALL (      13 calls)

     PWSCF        :     3.90s CPU         4.14s WALL


   This run was terminated on:  17:50:46  26Mar2012            

=------------------------------------------------------------------------------=
   JOB DONE.
=------------------------------------------------------------------------------=
