
     Program PWSCF v.4.3.2      starts on 26Mar2012 at 17:50:39 

     This program is part of the open-source Quantum ESPRESSO suite
     for quantum simulation of materials; please cite
         "P. Giannozzi et al., J. Phys.:Condens. Matter 21 395502 (2009);
          URL http://www.quantum-espresso.org", 
     in publications or presentations arising from this work. More details at
     http://www.quantum-espresso.org/wiki/index.php/Citing_Quantum-ESPRESSO

     Current dimensions of program PWSCF are:
     Max number of different atomic species (ntypx) = 10
     Max number of k-points (npk) =  40000
     Max angular momentum in pseudopotentials (lmaxx) =  3
     Waiting for input...
     Reading input from stdin
     warning: symmetry operation #  5 not allowed.   fractional translation:
       0.2000000  0.2000000  0.3000000  in crystal coordinates
     warning: symmetry operation #  6 not allowed.   fractional translation:
       0.2000000  0.2000000  0.3000000  in crystal coordinates
     warning: symmetry operation # 25 not allowed.   fractional translation:
       0.2000000  0.2000000  0.3000000  in crystal coordinates
     warning: symmetry operation # 26 not allowed.   fractional translation:
       0.2000000  0.2000000  0.3000000  in crystal coordinates

     G-vector sticks info
     --------------------
     sticks:   dense  smooth     PW     G-vecs:    dense   smooth      PW
     Sum         499     499    151                 7391     7391    1243



     bravais-lattice index     =            2
     lattice parameter (alat)  =       6.7400  a.u.
     unit-cell volume          =      76.5455 (a.u.)^3
     number of atoms/cell      =            2
     number of atomic types    =            1
     number of electrons       =         8.00
     number of Kohn-Sham states=            4
     kinetic-energy cutoff     =      80.0000  Ry
     charge density cutoff     =     320.0000  Ry
     convergence threshold     =      1.0E-06
     mixing beta               =       0.7000
     number of iterations used =            8  plain     mixing
     Exchange-correlation      =  SLA  PZ   NOGX NOGC ( 1 1 0 0 0)
     EXX-fraction              =        0.00

     celldm(1)=   6.740000  celldm(2)=   0.000000  celldm(3)=   0.000000
     celldm(4)=   0.000000  celldm(5)=   0.000000  celldm(6)=   0.000000

     crystal axes: (cart. coord. in units of alat)
               a(1) = (  -0.500000   0.000000   0.500000 )  
               a(2) = (   0.000000   0.500000   0.500000 )  
               a(3) = (  -0.500000   0.500000   0.000000 )  

     reciprocal axes: (cart. coord. in units 2 pi/alat)
               b(1) = ( -1.000000 -1.000000  1.000000 )  
               b(2) = (  1.000000  1.000000  1.000000 )  
               b(3) = ( -1.000000  1.000000 -1.000000 )  


     PseudoPot. # 1 for  C read from file:
     /home/sam/Documents/espresso-4.3.2/pseudo/C.pz-kjpaw.UPF
     MD5 check sum: 414e6e825ae75add557e798061b49a04
     Pseudo is Projector augmented-wave + core cor, Zval =  4.0
     Generated using "atomic" code by A. Dal Corso (espresso distribution)
     Shape of augmentation charge: BESSEL
     Using radial grid of 1073 points,  4 beta functions with: 
                l(1) =   0
                l(2) =   0
                l(3) =   1
                l(4) =   1
     Q(r) pseudized with 0 coefficients 


     atomic species   valence    mass     pseudopotential
        C              4.00    12.01070      C( 1.00)

      4 Sym.Ops. (no inversion)


   Cartesian axes

     site n.     atom                  positions (alat units)
         1           C   tau(   1) = (   0.0000000   0.0000000   0.0500000  )
         2           C   tau(   2) = (   0.2500000   0.2500000   0.2500000  )

     number of k points=    18
                       cart. coord. in units 2pi/alat
        k(    1) = (   0.0000000   0.0000000   0.0000000), wk =   0.0312500
        k(    2) = (  -0.2500000   0.2500000  -0.2500000), wk =   0.1250000
        k(    3) = (   0.5000000  -0.5000000   0.5000000), wk =   0.0625000
        k(    4) = (   0.0000000   0.5000000   0.0000000), wk =   0.1250000
        k(    5) = (   0.7500000  -0.2500000   0.7500000), wk =   0.2500000
        k(    6) = (   0.5000000   0.0000000   0.5000000), wk =   0.2500000
        k(    7) = (   0.0000000  -1.0000000   0.0000000), wk =   0.0625000
        k(    8) = (  -0.5000000  -1.0000000   0.0000000), wk =   0.1250000
        k(    9) = (   0.2500000   0.2500000  -0.2500000), wk =   0.1250000
        k(   10) = (  -0.5000000  -0.5000000   0.5000000), wk =   0.0625000
        k(   11) = (   0.0000000   0.0000000   0.5000000), wk =   0.0625000
        k(   12) = (  -0.2500000  -0.7500000   0.7500000), wk =   0.2500000
        k(   13) = (  -0.7500000   0.7500000  -0.2500000), wk =   0.1250000
        k(   14) = (  -0.7500000  -0.7500000   0.2500000), wk =   0.1250000
        k(   15) = (  -0.5000000   0.5000000   0.0000000), wk =   0.0625000
        k(   16) = (  -0.5000000  -0.5000000   0.0000000), wk =   0.0625000
        k(   17) = (   0.0000000   0.0000000  -1.0000000), wk =   0.0312500
        k(   18) = (   0.0000000   1.0000000  -0.5000000), wk =   0.0625000

     Dense  grid:     7391 G-vectors     FFT dimensions: (  27,  27,  27)

     Largest allocated arrays     est. size (Mb)     dimensions
        Kohn-Sham Wavefunctions         0.06 Mb     (    941,    4)
        NL pseudopotentials             0.23 Mb     (    941,   16)
        Each V/rho on FFT grid          0.30 Mb     (  19683)
        Each G-vector array             0.06 Mb     (   7391)
        G-vector shells                 0.00 Mb     (    125)
     Largest temporary arrays     est. size (Mb)     dimensions
        Auxiliary wavefunctions         0.23 Mb     (    941,   16)
        Each subspace H/S matrix        0.00 Mb     (  16,  16)
        Each <psi_i|beta_j> matrix      0.00 Mb     (     16,    4)
        Arrays for rho mixing           2.40 Mb     (  19683,   8)

     Check: negative/imaginary core charge=   -0.000003    0.000000

     Initial potential from superposition of free atoms

     starting charge    7.99993, renormalised to    8.00000
     Starting wfc are    8 atomic wfcs

     total cpu time spent up to now is        0.9 secs

     per-process dynamical memory:     5.9 Mb

     Self-consistent Calculation

     iteration #  1     ecut=    80.00 Ry     beta=0.70
     Davidson diagonalization with overlap
     ethr =  1.00E-02,  avg # of iterations =  2.9

     total cpu time spent up to now is        1.3 secs

     total energy              =     -35.54865569 Ry
     Harris-Foulkes estimate   =     -35.60760000 Ry
     estimated scf accuracy    <       0.10775210 Ry

     iteration #  2     ecut=    80.00 Ry     beta=0.70
     Davidson diagonalization with overlap
     ethr =  1.35E-03,  avg # of iterations =  2.8

     total cpu time spent up to now is        1.7 secs

     total energy              =     -35.56811565 Ry
     Harris-Foulkes estimate   =     -35.57252366 Ry
     estimated scf accuracy    <       0.00846413 Ry

     iteration #  3     ecut=    80.00 Ry     beta=0.70
     Davidson diagonalization with overlap
     ethr =  1.06E-04,  avg # of iterations =  2.8

     total cpu time spent up to now is        2.1 secs

     total energy              =     -35.57425508 Ry
     Harris-Foulkes estimate   =     -35.57513732 Ry
     estimated scf accuracy    <       0.00140137 Ry

     iteration #  4     ecut=    80.00 Ry     beta=0.70
     Davidson diagonalization with overlap
     ethr =  1.75E-05,  avg # of iterations =  3.1

     total cpu time spent up to now is        2.5 secs

     total energy              =     -35.57453941 Ry
     Harris-Foulkes estimate   =     -35.57457397 Ry
     estimated scf accuracy    <       0.00009192 Ry

     iteration #  5     ecut=    80.00 Ry     beta=0.70
     Davidson diagonalization with overlap
     ethr =  1.15E-06,  avg # of iterations =  2.3

     total cpu time spent up to now is        2.9 secs

     total energy              =     -35.57455959 Ry
     Harris-Foulkes estimate   =     -35.57457160 Ry
     estimated scf accuracy    <       0.00001793 Ry

     iteration #  6     ecut=    80.00 Ry     beta=0.70
     Davidson diagonalization with overlap
     ethr =  2.24E-07,  avg # of iterations =  3.1

     total cpu time spent up to now is        3.3 secs

     End of self-consistent calculation

          k = 0.0000 0.0000 0.0000 (   941 PWs)   bands (ev):

    -8.2438  10.4340  13.5746  15.8331

          k =-0.2500 0.2500-0.2500 (   923 PWs)   bands (ev):

    -6.5368   7.0083   9.3505  12.7889

          k = 0.5000-0.5000 0.5000 (   912 PWs)   bands (ev):

    -2.7068   0.3522   8.5363  11.8618

          k = 0.0000 0.5000 0.0000 (   902 PWs)   bands (ev):

    -5.9837   7.0841   9.2071  10.5069

          k = 0.7500-0.2500 0.7500 (   920 PWs)   bands (ev):

    -2.3682   3.0415   5.3111   8.8283

          k = 0.5000 0.0000 0.5000 (   919 PWs)   bands (ev):

    -3.8114   4.2027   5.4638  10.4903

          k = 0.0000-1.0000 0.0000 (   934 PWs)   bands (ev):

     0.2884   0.2884   7.0817   7.0817

          k =-0.5000-1.0000 0.0000 (   932 PWs)   bands (ev):

     0.5871   1.8968   4.0377   5.4787

          k = 0.2500 0.2500-0.2500 (   923 PWs)   bands (ev):

    -6.5463   5.7387  10.7706  12.9027

          k =-0.5000-0.5000 0.5000 (   912 PWs)   bands (ev):

    -2.1576  -0.9750   9.4628  11.7979

          k = 0.0000 0.0000 0.5000 (   902 PWs)   bands (ev):

    -5.9663   7.6224   8.8479   9.8056

          k =-0.2500-0.7500 0.7500 (   920 PWs)   bands (ev):

    -2.2181   1.6973   6.8376   8.6431

          k =-0.7500 0.7500-0.2500 (   920 PWs)   bands (ev):

    -2.3233   2.7384   6.9613   7.1142

          k =-0.7500-0.7500 0.2500 (   920 PWs)   bands (ev):

    -2.1998   1.9683   5.8760   9.0935

          k =-0.5000 0.5000 0.0000 (   919 PWs)   bands (ev):

    -3.8415   5.5372   5.5811   8.4130

          k =-0.5000-0.5000 0.0000 (   919 PWs)   bands (ev):

    -3.8067   3.3807   5.6937  11.4350

          k = 0.0000 0.0000-1.0000 (   934 PWs)   bands (ev):

    -0.1168   1.1285   5.7664   7.4707

          k = 0.0000 1.0000-0.5000 (   932 PWs)   bands (ev):

     1.0208   1.0208   5.0457   5.0457

!    total energy              =     -35.57456500 Ry
     Harris-Foulkes estimate   =     -35.57456525 Ry
     estimated scf accuracy    <       0.00000054 Ry

     total all-electron energy =      -151.133561 Ry

     The total energy is the sum of the following terms:

     one-electron contribution =       8.40636483 Ry
     hartree contribution      =       1.96203831 Ry
     xc contribution           =      -8.39246550 Ry
     ewald contribution        =     -25.47879239 Ry
     one-center paw contrib.   =     -12.07171025 Ry

     convergence has been achieved in   6 iterations

     Forces acting on atoms (Ry/au):

     atom    1 type  1   force =     0.00000000    0.00000000   -0.25013808
     atom    2 type  1   force =     0.00000000    0.00000000    0.25013808

     Total force =     0.353749     Total SCF correction =     0.000099

     Writing output data file diamond.save

     init_run     :      0.68s CPU      0.69s WALL (       1 calls)
     electrons    :      2.18s CPU      2.33s WALL (       1 calls)
     forces       :      0.07s CPU      0.06s WALL (       1 calls)

     Called by init_run:
     wfcinit      :      0.16s CPU      0.16s WALL (       1 calls)
     potinit      :      0.04s CPU      0.04s WALL (       1 calls)

     Called by electrons:
     c_bands      :      1.46s CPU      1.52s WALL (       6 calls)
     sum_band     :      0.32s CPU      0.33s WALL (       6 calls)
     v_of_rho     :      0.03s CPU      0.04s WALL (       7 calls)
     newd         :      0.10s CPU      0.10s WALL (       7 calls)
     mix_rho      :      0.10s CPU      0.09s WALL (       6 calls)

     Called by c_bands:
     init_us_2    :      0.07s CPU      0.08s WALL (     252 calls)
     cegterg      :      1.37s CPU      1.41s WALL (     108 calls)

     Called by *egterg:
     h_psi        :      1.33s CPU      1.36s WALL (     431 calls)
     s_psi        :      0.04s CPU      0.05s WALL (     431 calls)
     g_psi        :      0.02s CPU      0.02s WALL (     305 calls)
     cdiaghg      :      0.01s CPU      0.02s WALL (     413 calls)

     Called by h_psi:
     add_vuspsi   :      0.05s CPU      0.06s WALL (     431 calls)

     General routines
     calbec       :      0.06s CPU      0.07s WALL (     557 calls)
     fft          :      0.04s CPU      0.03s WALL (      45 calls)
     fftw         :      1.30s CPU      1.30s WALL (    3268 calls)
     davcio       :      0.00s CPU      0.01s WALL (     360 calls)


     PAW routines
     PAW_pot      :      0.21s CPU      0.21s WALL (       7 calls)
     PAW_ddot     :      0.08s CPU      0.08s WALL (      36 calls)
     PAW_symme    :      0.00s CPU      0.00s WALL (      13 calls)

     PWSCF        :     3.26s CPU         3.44s WALL


   This run was terminated on:  17:50:42  26Mar2012            

=------------------------------------------------------------------------------=
   JOB DONE.
=------------------------------------------------------------------------------=
