
     Program PWSCF v.4.3.2      starts on 26Mar2012 at 17:50:28 

     This program is part of the open-source Quantum ESPRESSO suite
     for quantum simulation of materials; please cite
         "P. Giannozzi et al., J. Phys.:Condens. Matter 21 395502 (2009);
          URL http://www.quantum-espresso.org", 
     in publications or presentations arising from this work. More details at
     http://www.quantum-espresso.org/wiki/index.php/Citing_Quantum-ESPRESSO

     Current dimensions of program PWSCF are:
     Max number of different atomic species (ntypx) = 10
     Max number of k-points (npk) =  40000
     Max angular momentum in pseudopotentials (lmaxx) =  3
     Waiting for input...
     Reading input from stdin

     G-vector sticks info
     --------------------
     sticks:   dense  smooth     PW     G-vecs:    dense   smooth      PW
     Sum         253     253     85                 2685     2685     531



     bravais-lattice index     =            2
     lattice parameter (alat)  =       6.7400  a.u.
     unit-cell volume          =      76.5455 (a.u.)^3
     number of atoms/cell      =            2
     number of atomic types    =            1
     number of electrons       =         8.00
     number of Kohn-Sham states=            4
     kinetic-energy cutoff     =      40.0000  Ry
     charge density cutoff     =     160.0000  Ry
     convergence threshold     =      1.0E-06
     mixing beta               =       0.7000
     number of iterations used =            8  plain     mixing
     Exchange-correlation      =  SLA  PZ   NOGX NOGC ( 1 1 0 0 0)
     EXX-fraction              =        0.00

     celldm(1)=   6.740000  celldm(2)=   0.000000  celldm(3)=   0.000000
     celldm(4)=   0.000000  celldm(5)=   0.000000  celldm(6)=   0.000000

     crystal axes: (cart. coord. in units of alat)
               a(1) = (  -0.500000   0.000000   0.500000 )  
               a(2) = (   0.000000   0.500000   0.500000 )  
               a(3) = (  -0.500000   0.500000   0.000000 )  

     reciprocal axes: (cart. coord. in units 2 pi/alat)
               b(1) = ( -1.000000 -1.000000  1.000000 )  
               b(2) = (  1.000000  1.000000  1.000000 )  
               b(3) = ( -1.000000  1.000000 -1.000000 )  


     PseudoPot. # 1 for  C read from file:
     /home/sam/Documents/espresso-4.3.2/pseudo/C.pz-kjpaw.UPF
     MD5 check sum: 414e6e825ae75add557e798061b49a04
     Pseudo is Projector augmented-wave + core cor, Zval =  4.0
     Generated using "atomic" code by A. Dal Corso (espresso distribution)
     Shape of augmentation charge: BESSEL
     Using radial grid of 1073 points,  4 beta functions with: 
                l(1) =   0
                l(2) =   0
                l(3) =   1
                l(4) =   1
     Q(r) pseudized with 0 coefficients 


     atomic species   valence    mass     pseudopotential
        C              4.00    12.01070      C( 1.00)

      8 Sym.Ops. (with inversion)


   Cartesian axes

     site n.     atom                  positions (alat units)
         1           C   tau(   1) = (   0.0000000   0.0000000   0.0500000  )
         2           C   tau(   2) = (   0.2500000   0.2500000   0.2500000  )

     number of k points=    18
                       cart. coord. in units 2pi/alat
        k(    1) = (   0.0000000   0.0000000   0.0000000), wk =   0.0312500
        k(    2) = (  -0.2500000   0.2500000  -0.2500000), wk =   0.1250000
        k(    3) = (   0.5000000  -0.5000000   0.5000000), wk =   0.0625000
        k(    4) = (   0.0000000   0.5000000   0.0000000), wk =   0.1250000
        k(    5) = (   0.7500000  -0.2500000   0.7500000), wk =   0.2500000
        k(    6) = (   0.5000000   0.0000000   0.5000000), wk =   0.2500000
        k(    7) = (   0.0000000  -1.0000000   0.0000000), wk =   0.0625000
        k(    8) = (  -0.5000000  -1.0000000   0.0000000), wk =   0.1250000
        k(    9) = (  -0.2500000  -0.2500000  -0.2500000), wk =   0.1250000
        k(   10) = (   0.5000000   0.5000000   0.5000000), wk =   0.0625000
        k(   11) = (   0.0000000   0.0000000   0.5000000), wk =   0.0625000
        k(   12) = (   0.7500000   0.2500000   0.7500000), wk =   0.2500000
        k(   13) = (  -0.7500000   0.7500000  -0.2500000), wk =   0.1250000
        k(   14) = (  -0.7500000  -0.7500000   0.2500000), wk =   0.1250000
        k(   15) = (  -0.5000000   0.5000000   0.0000000), wk =   0.0625000
        k(   16) = (  -0.5000000  -0.5000000   0.0000000), wk =   0.0625000
        k(   17) = (   0.0000000   0.0000000  -1.0000000), wk =   0.0312500
        k(   18) = (   0.0000000   1.0000000  -0.5000000), wk =   0.0625000

     Dense  grid:     2685 G-vectors     FFT dimensions: (  20,  20,  20)

     Largest allocated arrays     est. size (Mb)     dimensions
        Kohn-Sham Wavefunctions         0.02 Mb     (    342,    4)
        NL pseudopotentials             0.08 Mb     (    342,   16)
        Each V/rho on FFT grid          0.12 Mb     (   8000)
        Each G-vector array             0.02 Mb     (   2685)
        G-vector shells                 0.00 Mb     (     64)
     Largest temporary arrays     est. size (Mb)     dimensions
        Auxiliary wavefunctions         0.08 Mb     (    342,   16)
        Each subspace H/S matrix        0.00 Mb     (  16,  16)
        Each <psi_i|beta_j> matrix      0.00 Mb     (     16,    4)
        Arrays for rho mixing           0.98 Mb     (   8000,   8)

     Check: negative/imaginary core charge=   -0.000047    0.000000

     Initial potential from superposition of free atoms

     starting charge    7.99993, renormalised to    8.00000
     Starting wfc are    8 atomic wfcs

     total cpu time spent up to now is        0.7 secs

     per-process dynamical memory:     3.5 Mb

     Self-consistent Calculation

     iteration #  1     ecut=    40.00 Ry     beta=0.70
     Davidson diagonalization with overlap
     ethr =  1.00E-02,  avg # of iterations =  2.9

     total cpu time spent up to now is        0.8 secs

     total energy              =     -35.55638497 Ry
     Harris-Foulkes estimate   =     -35.62832042 Ry
     estimated scf accuracy    <       0.13085865 Ry

     iteration #  2     ecut=    40.00 Ry     beta=0.70
     Davidson diagonalization with overlap
     ethr =  1.64E-03,  avg # of iterations =  1.8

     total cpu time spent up to now is        1.0 secs

     total energy              =     -35.56699056 Ry
     Harris-Foulkes estimate   =     -35.56917656 Ry
     estimated scf accuracy    <       0.00476881 Ry

     iteration #  3     ecut=    40.00 Ry     beta=0.70
     Davidson diagonalization with overlap
     ethr =  5.96E-05,  avg # of iterations =  3.1

     total cpu time spent up to now is        1.2 secs

     total energy              =     -35.57313480 Ry
     Harris-Foulkes estimate   =     -35.57379273 Ry
     estimated scf accuracy    <       0.00109194 Ry

     iteration #  4     ecut=    40.00 Ry     beta=0.70
     Davidson diagonalization with overlap
     ethr =  1.36E-05,  avg # of iterations =  2.9

     total cpu time spent up to now is        1.4 secs

     total energy              =     -35.57333455 Ry
     Harris-Foulkes estimate   =     -35.57344436 Ry
     estimated scf accuracy    <       0.00018779 Ry

     iteration #  5     ecut=    40.00 Ry     beta=0.70
     Davidson diagonalization with overlap
     ethr =  2.35E-06,  avg # of iterations =  2.3

     total cpu time spent up to now is        1.5 secs

     End of self-consistent calculation

          k = 0.0000 0.0000 0.0000 (   331 PWs)   bands (ev):

    -8.2427  10.4355  13.5779  15.8372

          k =-0.2500 0.2500-0.2500 (   323 PWs)   bands (ev):

    -6.5356   7.0108   9.3520  12.7923

          k = 0.5000-0.5000 0.5000 (   332 PWs)   bands (ev):

    -2.7058   0.3544   8.5375  11.8650

          k = 0.0000 0.5000 0.0000 (   311 PWs)   bands (ev):

    -5.9823   7.0854   9.2095  10.5105

          k = 0.7500-0.2500 0.7500 (   327 PWs)   bands (ev):

    -2.3669   3.0439   5.3123   8.8309

          k = 0.5000 0.0000 0.5000 (   327 PWs)   bands (ev):

    -3.8100   4.2043   5.4658  10.4929

          k = 0.0000-1.0000 0.0000 (   342 PWs)   bands (ev):

     0.2897   0.2897   7.0837   7.0837

          k =-0.5000-1.0000 0.0000 (   328 PWs)   bands (ev):

     0.5881   1.8992   4.0393   5.4810

          k =-0.2500-0.2500-0.2500 (   323 PWs)   bands (ev):

    -6.5450   5.7402  10.7730  12.9059

          k = 0.5000 0.5000 0.5000 (   332 PWs)   bands (ev):

    -2.1557  -0.9741   9.4646  11.8008

          k = 0.0000 0.0000 0.5000 (   311 PWs)   bands (ev):

    -5.9650   7.6239   8.8506   9.8083

          k = 0.7500 0.2500 0.7500 (   327 PWs)   bands (ev):

    -2.2165   1.6985   6.8398   8.6456

          k =-0.7500 0.7500-0.2500 (   327 PWs)   bands (ev):

    -2.3220   2.7405   6.9625   7.1168

          k =-0.7500-0.7500 0.2500 (   327 PWs)   bands (ev):

    -2.1983   1.9698   5.8778   9.0959

          k =-0.5000 0.5000 0.0000 (   327 PWs)   bands (ev):

    -3.8402   5.5391   5.5841   8.4143

          k =-0.5000-0.5000 0.0000 (   327 PWs)   bands (ev):

    -3.8052   3.3817   5.6960  11.4380

          k = 0.0000 0.0000-1.0000 (   342 PWs)   bands (ev):

    -0.1161   1.1311   5.7675   7.4728

          k = 0.0000 1.0000-0.5000 (   328 PWs)   bands (ev):

     1.0222   1.0222   5.0479   5.0479

!    total energy              =     -35.57336219 Ry
     Harris-Foulkes estimate   =     -35.57336222 Ry
     estimated scf accuracy    <       0.00000008 Ry

     total all-electron energy =      -151.132358 Ry

     The total energy is the sum of the following terms:

     one-electron contribution =       8.40766338 Ry
     hartree contribution      =       1.96362254 Ry
     xc contribution           =      -8.39332114 Ry
     ewald contribution        =     -25.47879241 Ry
     one-center paw contrib.   =     -12.07253456 Ry

     convergence has been achieved in   5 iterations

     Forces acting on atoms (Ry/au):

     atom    1 type  1   force =     0.00000000    0.00000000   -0.24983642
     atom    2 type  1   force =     0.00000000    0.00000000    0.24983642

     Total force =     0.353322     Total SCF correction =     0.000188

     Writing output data file diamond.save

     init_run     :      0.42s CPU      0.42s WALL (       1 calls)
     electrons    :      0.83s CPU      0.84s WALL (       1 calls)
     forces       :      0.02s CPU      0.03s WALL (       1 calls)

     Called by init_run:
     wfcinit      :      0.06s CPU      0.06s WALL (       1 calls)
     potinit      :      0.04s CPU      0.04s WALL (       1 calls)

     Called by electrons:
     c_bands      :      0.48s CPU      0.48s WALL (       5 calls)
     sum_band     :      0.10s CPU      0.11s WALL (       5 calls)
     v_of_rho     :      0.01s CPU      0.01s WALL (       6 calls)
     newd         :      0.03s CPU      0.03s WALL (       6 calls)
     mix_rho      :      0.06s CPU      0.06s WALL (       5 calls)

     Called by c_bands:
     init_us_2    :      0.03s CPU      0.03s WALL (     216 calls)
     cegterg      :      0.46s CPU      0.45s WALL (      90 calls)

     Called by *egterg:
     h_psi        :      0.45s CPU      0.42s WALL (     342 calls)
     s_psi        :      0.02s CPU      0.02s WALL (     342 calls)
     g_psi        :      0.00s CPU      0.01s WALL (     234 calls)
     cdiaghg      :      0.00s CPU      0.02s WALL (     324 calls)

     Called by h_psi:
     add_vuspsi   :      0.04s CPU      0.02s WALL (     342 calls)

     General routines
     calbec       :      0.02s CPU      0.02s WALL (     450 calls)
     fft          :      0.00s CPU      0.01s WALL (      39 calls)
     fftw         :      0.39s CPU      0.39s WALL (    2796 calls)
     davcio       :      0.00s CPU      0.00s WALL (     306 calls)


     PAW routines
     PAW_pot      :      0.19s CPU      0.19s WALL (       6 calls)
     PAW_ddot     :      0.06s CPU      0.05s WALL (      21 calls)
     PAW_symme    :      0.00s CPU      0.00s WALL (      11 calls)

     PWSCF        :     1.60s CPU         1.64s WALL


   This run was terminated on:  17:50:30  26Mar2012            

=------------------------------------------------------------------------------=
   JOB DONE.
=------------------------------------------------------------------------------=
