
     Program PWSCF v.4.3.2      starts on 26Mar2012 at 17:50:30 

     This program is part of the open-source Quantum ESPRESSO suite
     for quantum simulation of materials; please cite
         "P. Giannozzi et al., J. Phys.:Condens. Matter 21 395502 (2009);
          URL http://www.quantum-espresso.org", 
     in publications or presentations arising from this work. More details at
     http://www.quantum-espresso.org/wiki/index.php/Citing_Quantum-ESPRESSO

     Current dimensions of program PWSCF are:
     Max number of different atomic species (ntypx) = 10
     Max number of k-points (npk) =  40000
     Max angular momentum in pseudopotentials (lmaxx) =  3
     Waiting for input...
     Reading input from stdin
     warning: symmetry operation #  5 not allowed.   fractional translation:
       0.2000000  0.2000000  0.3000000  in crystal coordinates
     warning: symmetry operation #  6 not allowed.   fractional translation:
       0.2000000  0.2000000  0.3000000  in crystal coordinates
     warning: symmetry operation # 25 not allowed.   fractional translation:
       0.2000000  0.2000000  0.3000000  in crystal coordinates
     warning: symmetry operation # 26 not allowed.   fractional translation:
       0.2000000  0.2000000  0.3000000  in crystal coordinates

     G-vector sticks info
     --------------------
     sticks:   dense  smooth     PW     G-vecs:    dense   smooth      PW
     Sum         313     313    109                 3695     3695     701



     bravais-lattice index     =            2
     lattice parameter (alat)  =       6.7400  a.u.
     unit-cell volume          =      76.5455 (a.u.)^3
     number of atoms/cell      =            2
     number of atomic types    =            1
     number of electrons       =         8.00
     number of Kohn-Sham states=            4
     kinetic-energy cutoff     =      50.0000  Ry
     charge density cutoff     =     200.0000  Ry
     convergence threshold     =      1.0E-06
     mixing beta               =       0.7000
     number of iterations used =            8  plain     mixing
     Exchange-correlation      =  SLA  PZ   NOGX NOGC ( 1 1 0 0 0)
     EXX-fraction              =        0.00

     celldm(1)=   6.740000  celldm(2)=   0.000000  celldm(3)=   0.000000
     celldm(4)=   0.000000  celldm(5)=   0.000000  celldm(6)=   0.000000

     crystal axes: (cart. coord. in units of alat)
               a(1) = (  -0.500000   0.000000   0.500000 )  
               a(2) = (   0.000000   0.500000   0.500000 )  
               a(3) = (  -0.500000   0.500000   0.000000 )  

     reciprocal axes: (cart. coord. in units 2 pi/alat)
               b(1) = ( -1.000000 -1.000000  1.000000 )  
               b(2) = (  1.000000  1.000000  1.000000 )  
               b(3) = ( -1.000000  1.000000 -1.000000 )  


     PseudoPot. # 1 for  C read from file:
     /home/sam/Documents/espresso-4.3.2/pseudo/C.pz-kjpaw.UPF
     MD5 check sum: 414e6e825ae75add557e798061b49a04
     Pseudo is Projector augmented-wave + core cor, Zval =  4.0
     Generated using "atomic" code by A. Dal Corso (espresso distribution)
     Shape of augmentation charge: BESSEL
     Using radial grid of 1073 points,  4 beta functions with: 
                l(1) =   0
                l(2) =   0
                l(3) =   1
                l(4) =   1
     Q(r) pseudized with 0 coefficients 


     atomic species   valence    mass     pseudopotential
        C              4.00    12.01070      C( 1.00)

      4 Sym.Ops. (no inversion)


   Cartesian axes

     site n.     atom                  positions (alat units)
         1           C   tau(   1) = (   0.0000000   0.0000000   0.0500000  )
         2           C   tau(   2) = (   0.2500000   0.2500000   0.2500000  )

     number of k points=    18
                       cart. coord. in units 2pi/alat
        k(    1) = (   0.0000000   0.0000000   0.0000000), wk =   0.0312500
        k(    2) = (  -0.2500000   0.2500000  -0.2500000), wk =   0.1250000
        k(    3) = (   0.5000000  -0.5000000   0.5000000), wk =   0.0625000
        k(    4) = (   0.0000000   0.5000000   0.0000000), wk =   0.1250000
        k(    5) = (   0.7500000  -0.2500000   0.7500000), wk =   0.2500000
        k(    6) = (   0.5000000   0.0000000   0.5000000), wk =   0.2500000
        k(    7) = (   0.0000000  -1.0000000   0.0000000), wk =   0.0625000
        k(    8) = (  -0.5000000  -1.0000000   0.0000000), wk =   0.1250000
        k(    9) = (   0.2500000   0.2500000  -0.2500000), wk =   0.1250000
        k(   10) = (  -0.5000000  -0.5000000   0.5000000), wk =   0.0625000
        k(   11) = (   0.0000000   0.0000000   0.5000000), wk =   0.0625000
        k(   12) = (  -0.2500000  -0.7500000   0.7500000), wk =   0.2500000
        k(   13) = (  -0.7500000   0.7500000  -0.2500000), wk =   0.1250000
        k(   14) = (  -0.7500000  -0.7500000   0.2500000), wk =   0.1250000
        k(   15) = (  -0.5000000   0.5000000   0.0000000), wk =   0.0625000
        k(   16) = (  -0.5000000  -0.5000000   0.0000000), wk =   0.0625000
        k(   17) = (   0.0000000   0.0000000  -1.0000000), wk =   0.0312500
        k(   18) = (   0.0000000   1.0000000  -0.5000000), wk =   0.0625000

     Dense  grid:     3695 G-vectors     FFT dimensions: (  24,  24,  24)

     Largest allocated arrays     est. size (Mb)     dimensions
        Kohn-Sham Wavefunctions         0.03 Mb     (    465,    4)
        NL pseudopotentials             0.11 Mb     (    465,   16)
        Each V/rho on FFT grid          0.21 Mb     (  13824)
        Each G-vector array             0.03 Mb     (   3695)
        G-vector shells                 0.00 Mb     (     79)
     Largest temporary arrays     est. size (Mb)     dimensions
        Auxiliary wavefunctions         0.11 Mb     (    465,   16)
        Each subspace H/S matrix        0.00 Mb     (  16,  16)
        Each <psi_i|beta_j> matrix      0.00 Mb     (     16,    4)
        Arrays for rho mixing           1.69 Mb     (  13824,   8)

     Check: negative/imaginary core charge=   -0.000011    0.000000

     Initial potential from superposition of free atoms

     starting charge    7.99993, renormalised to    8.00000
     Starting wfc are    8 atomic wfcs

     total cpu time spent up to now is        1.1 secs

     per-process dynamical memory:     4.2 Mb

     Self-consistent Calculation

     iteration #  1     ecut=    50.00 Ry     beta=0.70
     Davidson diagonalization with overlap
     ethr =  1.00E-02,  avg # of iterations =  2.9

     total cpu time spent up to now is        1.3 secs

     total energy              =     -35.54987979 Ry
     Harris-Foulkes estimate   =     -35.61219202 Ry
     estimated scf accuracy    <       0.11355059 Ry

     iteration #  2     ecut=    50.00 Ry     beta=0.70
     Davidson diagonalization with overlap
     ethr =  1.42E-03,  avg # of iterations =  2.7

     total cpu time spent up to now is        1.6 secs

     total energy              =     -35.56756051 Ry
     Harris-Foulkes estimate   =     -35.57126882 Ry
     estimated scf accuracy    <       0.00737431 Ry

     iteration #  3     ecut=    50.00 Ry     beta=0.70
     Davidson diagonalization with overlap
     ethr =  9.22E-05,  avg # of iterations =  2.9

     total cpu time spent up to now is        1.9 secs

     total energy              =     -35.57348385 Ry
     Harris-Foulkes estimate   =     -35.57425363 Ry
     estimated scf accuracy    <       0.00122509 Ry

     iteration #  4     ecut=    50.00 Ry     beta=0.70
     Davidson diagonalization with overlap
     ethr =  1.53E-05,  avg # of iterations =  2.8

     total cpu time spent up to now is        2.2 secs

     total energy              =     -35.57375405 Ry
     Harris-Foulkes estimate   =     -35.57382071 Ry
     estimated scf accuracy    <       0.00014079 Ry

     iteration #  5     ecut=    50.00 Ry     beta=0.70
     Davidson diagonalization with overlap
     ethr =  1.76E-06,  avg # of iterations =  2.2

     total cpu time spent up to now is        2.4 secs

     total energy              =     -35.57376738 Ry
     Harris-Foulkes estimate   =     -35.57377430 Ry
     estimated scf accuracy    <       0.00001032 Ry

     iteration #  6     ecut=    50.00 Ry     beta=0.70
     Davidson diagonalization with overlap
     ethr =  1.29E-07,  avg # of iterations =  3.4

     total cpu time spent up to now is        2.7 secs

     total energy              =     -35.57377629 Ry
     Harris-Foulkes estimate   =     -35.57377706 Ry
     estimated scf accuracy    <       0.00000161 Ry

     iteration #  7     ecut=    50.00 Ry     beta=0.70
     Davidson diagonalization with overlap
     ethr =  2.01E-08,  avg # of iterations =  2.3

     total cpu time spent up to now is        2.9 secs

     End of self-consistent calculation

          k = 0.0000 0.0000 0.0000 (   459 PWs)   bands (ev):

    -8.2446  10.4328  13.5741  15.8329

          k =-0.2500 0.2500-0.2500 (   465 PWs)   bands (ev):

    -6.5377   7.0082   9.3490  12.7887

          k = 0.5000-0.5000 0.5000 (   464 PWs)   bands (ev):

    -2.7080   0.3524   8.5349  11.8613

          k = 0.0000 0.5000 0.0000 (   456 PWs)   bands (ev):

    -5.9845   7.0828   9.2069  10.5069

          k = 0.7500-0.2500 0.7500 (   453 PWs)   bands (ev):

    -2.3691   3.0415   5.3101   8.8281

          k = 0.5000 0.0000 0.5000 (   463 PWs)   bands (ev):

    -3.8123   4.2017   5.4635  10.4898

          k = 0.0000-1.0000 0.0000 (   460 PWs)   bands (ev):

     0.2874   0.2874   7.0813   7.0813

          k =-0.5000-1.0000 0.0000 (   464 PWs)   bands (ev):

     0.5859   1.8960   4.0372   5.4789

          k = 0.2500 0.2500-0.2500 (   465 PWs)   bands (ev):

    -6.5472   5.7375  10.7699  12.9027

          k =-0.5000-0.5000 0.5000 (   464 PWs)   bands (ev):

    -2.1586  -0.9755   9.4618  11.7976

          k = 0.0000 0.0000 0.5000 (   456 PWs)   bands (ev):

    -5.9672   7.6213   8.8474   9.8058

          k =-0.2500-0.7500 0.7500 (   453 PWs)   bands (ev):

    -2.2189   1.6964   6.8372   8.6429

          k =-0.7500 0.7500-0.2500 (   453 PWs)   bands (ev):

    -2.3242   2.7381   6.9601   7.1141

          k =-0.7500-0.7500 0.2500 (   453 PWs)   bands (ev):

    -2.2006   1.9675   5.8753   9.0935

          k =-0.5000 0.5000 0.0000 (   463 PWs)   bands (ev):

    -3.8425   5.5372   5.5809   8.4116

          k =-0.5000-0.5000 0.0000 (   463 PWs)   bands (ev):

    -3.8075   3.3796   5.6932  11.4349

          k = 0.0000 0.0000-1.0000 (   460 PWs)   bands (ev):

    -0.1180   1.1280   5.7654   7.4706

          k = 0.0000 1.0000-0.5000 (   464 PWs)   bands (ev):

     1.0197   1.0197   5.0457   5.0457

!    total energy              =     -35.57377646 Ry
     Harris-Foulkes estimate   =     -35.57377652 Ry
     estimated scf accuracy    <       0.00000018 Ry

     total all-electron energy =      -151.132773 Ry

     The total energy is the sum of the following terms:

     one-electron contribution =       8.40845173 Ry
     hartree contribution      =       1.96144353 Ry
     xc contribution           =      -8.39258590 Ry
     ewald contribution        =     -25.47879242 Ry
     one-center paw contrib.   =     -12.07229339 Ry

     convergence has been achieved in   7 iterations

     Forces acting on atoms (Ry/au):

     atom    1 type  1   force =     0.00000000    0.00000000   -0.24997445
     atom    2 type  1   force =     0.00000000    0.00000000    0.24997445

     Total force =     0.353517     Total SCF correction =     0.000056

     Writing output data file diamond.save

     init_run     :      0.51s CPU      0.84s WALL (       1 calls)
     electrons    :      1.62s CPU      1.83s WALL (       1 calls)
     forces       :      0.03s CPU      0.03s WALL (       1 calls)

     Called by init_run:
     wfcinit      :      0.11s CPU      0.11s WALL (       1 calls)
     potinit      :      0.04s CPU      0.04s WALL (       1 calls)

     Called by electrons:
     c_bands      :      0.98s CPU      0.99s WALL (       7 calls)
     sum_band     :      0.20s CPU      0.22s WALL (       7 calls)
     v_of_rho     :      0.02s CPU      0.03s WALL (       8 calls)
     newd         :      0.04s CPU      0.06s WALL (       8 calls)
     mix_rho      :      0.14s CPU      0.14s WALL (       7 calls)

     Called by c_bands:
     init_us_2    :      0.06s CPU      0.05s WALL (     288 calls)
     cegterg      :      0.92s CPU      0.93s WALL (     126 calls)

     Called by *egterg:
     h_psi        :      0.90s CPU      0.89s WALL (     494 calls)
     s_psi        :      0.03s CPU      0.03s WALL (     494 calls)
     g_psi        :      0.00s CPU      0.01s WALL (     350 calls)
     cdiaghg      :      0.04s CPU      0.02s WALL (     476 calls)

     Called by h_psi:
     add_vuspsi   :      0.03s CPU      0.03s WALL (     494 calls)

     General routines
     calbec       :      0.03s CPU      0.04s WALL (     638 calls)
     fft          :      0.02s CPU      0.02s WALL (      51 calls)
     fftw         :      0.88s CPU      0.85s WALL (    3806 calls)
     davcio       :      0.00s CPU      0.01s WALL (     414 calls)


     PAW routines
     PAW_pot      :      0.25s CPU      0.25s WALL (       8 calls)
     PAW_ddot     :      0.12s CPU      0.14s WALL (      57 calls)
     PAW_symme    :      0.00s CPU      0.00s WALL (      15 calls)

     PWSCF        :     2.51s CPU         3.07s WALL


   This run was terminated on:  17:50:33  26Mar2012            

=------------------------------------------------------------------------------=
   JOB DONE.
=------------------------------------------------------------------------------=
