
     Program PWSCF v.4.3.2      starts on 26Mar2012 at 17:50:46 

     This program is part of the open-source Quantum ESPRESSO suite
     for quantum simulation of materials; please cite
         "P. Giannozzi et al., J. Phys.:Condens. Matter 21 395502 (2009);
          URL http://www.quantum-espresso.org", 
     in publications or presentations arising from this work. More details at
     http://www.quantum-espresso.org/wiki/index.php/Citing_Quantum-ESPRESSO

     Current dimensions of program PWSCF are:
     Max number of different atomic species (ntypx) = 10
     Max number of k-points (npk) =  40000
     Max angular momentum in pseudopotentials (lmaxx) =  3
     Waiting for input...
     Reading input from stdin
     warning: symmetry operation #  5 not allowed.   fractional translation:
       0.2000000  0.2000000  0.3000000  in crystal coordinates
     warning: symmetry operation #  6 not allowed.   fractional translation:
       0.2000000  0.2000000  0.3000000  in crystal coordinates
     warning: symmetry operation # 25 not allowed.   fractional translation:
       0.2000000  0.2000000  0.3000000  in crystal coordinates
     warning: symmetry operation # 26 not allowed.   fractional translation:
       0.2000000  0.2000000  0.3000000  in crystal coordinates

     G-vector sticks info
     --------------------
     sticks:   dense  smooth     PW     G-vecs:    dense   smooth      PW
     Sum         637     637    199                10417    10417    1807



     bravais-lattice index     =            2
     lattice parameter (alat)  =       6.7400  a.u.
     unit-cell volume          =      76.5455 (a.u.)^3
     number of atoms/cell      =            2
     number of atomic types    =            1
     number of electrons       =         8.00
     number of Kohn-Sham states=            4
     kinetic-energy cutoff     =     100.0000  Ry
     charge density cutoff     =     400.0000  Ry
     convergence threshold     =      1.0E-06
     mixing beta               =       0.7000
     number of iterations used =            8  plain     mixing
     Exchange-correlation      =  SLA  PZ   NOGX NOGC ( 1 1 0 0 0)
     EXX-fraction              =        0.00

     celldm(1)=   6.740000  celldm(2)=   0.000000  celldm(3)=   0.000000
     celldm(4)=   0.000000  celldm(5)=   0.000000  celldm(6)=   0.000000

     crystal axes: (cart. coord. in units of alat)
               a(1) = (  -0.500000   0.000000   0.500000 )  
               a(2) = (   0.000000   0.500000   0.500000 )  
               a(3) = (  -0.500000   0.500000   0.000000 )  

     reciprocal axes: (cart. coord. in units 2 pi/alat)
               b(1) = ( -1.000000 -1.000000  1.000000 )  
               b(2) = (  1.000000  1.000000  1.000000 )  
               b(3) = ( -1.000000  1.000000 -1.000000 )  


     PseudoPot. # 1 for  C read from file:
     /home/sam/Documents/espresso-4.3.2/pseudo/C.pz-kjpaw.UPF
     MD5 check sum: 414e6e825ae75add557e798061b49a04
     Pseudo is Projector augmented-wave + core cor, Zval =  4.0
     Generated using "atomic" code by A. Dal Corso (espresso distribution)
     Shape of augmentation charge: BESSEL
     Using radial grid of 1073 points,  4 beta functions with: 
                l(1) =   0
                l(2) =   0
                l(3) =   1
                l(4) =   1
     Q(r) pseudized with 0 coefficients 


     atomic species   valence    mass     pseudopotential
        C              4.00    12.01070      C( 1.00)

      4 Sym.Ops. (no inversion)


   Cartesian axes

     site n.     atom                  positions (alat units)
         1           C   tau(   1) = (   0.0000000   0.0000000   0.0500000  )
         2           C   tau(   2) = (   0.2500000   0.2500000   0.2500000  )

     number of k points=    18
                       cart. coord. in units 2pi/alat
        k(    1) = (   0.0000000   0.0000000   0.0000000), wk =   0.0312500
        k(    2) = (  -0.2500000   0.2500000  -0.2500000), wk =   0.1250000
        k(    3) = (   0.5000000  -0.5000000   0.5000000), wk =   0.0625000
        k(    4) = (   0.0000000   0.5000000   0.0000000), wk =   0.1250000
        k(    5) = (   0.7500000  -0.2500000   0.7500000), wk =   0.2500000
        k(    6) = (   0.5000000   0.0000000   0.5000000), wk =   0.2500000
        k(    7) = (   0.0000000  -1.0000000   0.0000000), wk =   0.0625000
        k(    8) = (  -0.5000000  -1.0000000   0.0000000), wk =   0.1250000
        k(    9) = (   0.2500000   0.2500000  -0.2500000), wk =   0.1250000
        k(   10) = (  -0.5000000  -0.5000000   0.5000000), wk =   0.0625000
        k(   11) = (   0.0000000   0.0000000   0.5000000), wk =   0.0625000
        k(   12) = (  -0.2500000  -0.7500000   0.7500000), wk =   0.2500000
        k(   13) = (  -0.7500000   0.7500000  -0.2500000), wk =   0.1250000
        k(   14) = (  -0.7500000  -0.7500000   0.2500000), wk =   0.1250000
        k(   15) = (  -0.5000000   0.5000000   0.0000000), wk =   0.0625000
        k(   16) = (  -0.5000000  -0.5000000   0.0000000), wk =   0.0625000
        k(   17) = (   0.0000000   0.0000000  -1.0000000), wk =   0.0312500
        k(   18) = (   0.0000000   1.0000000  -0.5000000), wk =   0.0625000

     Dense  grid:    10417 G-vectors     FFT dimensions: (  32,  32,  32)

     Largest allocated arrays     est. size (Mb)     dimensions
        Kohn-Sham Wavefunctions         0.08 Mb     (   1308,    4)
        NL pseudopotentials             0.32 Mb     (   1308,   16)
        Each V/rho on FFT grid          0.50 Mb     (  32768)
        Each G-vector array             0.08 Mb     (  10417)
        G-vector shells                 0.00 Mb     (    156)
     Largest temporary arrays     est. size (Mb)     dimensions
        Auxiliary wavefunctions         0.32 Mb     (   1308,   16)
        Each subspace H/S matrix        0.00 Mb     (  16,  16)
        Each <psi_i|beta_j> matrix      0.00 Mb     (     16,    4)
        Arrays for rho mixing           4.00 Mb     (  32768,   8)

     Check: negative/imaginary core charge=   -0.000002    0.000000

     Initial potential from superposition of free atoms

     starting charge    7.99993, renormalised to    8.00000
     Starting wfc are    8 atomic wfcs

     total cpu time spent up to now is        1.0 secs

     per-process dynamical memory:     7.8 Mb

     Self-consistent Calculation

     iteration #  1     ecut=   100.00 Ry     beta=0.70
     Davidson diagonalization with overlap
     ethr =  1.00E-02,  avg # of iterations =  2.8

     total cpu time spent up to now is        1.6 secs

     total energy              =     -35.54829642 Ry
     Harris-Foulkes estimate   =     -35.60706516 Ry
     estimated scf accuracy    <       0.10737066 Ry

     iteration #  2     ecut=   100.00 Ry     beta=0.70
     Davidson diagonalization with overlap
     ethr =  1.34E-03,  avg # of iterations =  2.8

     total cpu time spent up to now is        2.0 secs

     total energy              =     -35.56843569 Ry
     Harris-Foulkes estimate   =     -35.57277996 Ry
     estimated scf accuracy    <       0.00838810 Ry

     iteration #  3     ecut=   100.00 Ry     beta=0.70
     Davidson diagonalization with overlap
     ethr =  1.05E-04,  avg # of iterations =  2.8

     total cpu time spent up to now is        2.6 secs

     total energy              =     -35.57432016 Ry
     Harris-Foulkes estimate   =     -35.57509546 Ry
     estimated scf accuracy    <       0.00123471 Ry

     iteration #  4     ecut=   100.00 Ry     beta=0.70
     Davidson diagonalization with overlap
     ethr =  1.54E-05,  avg # of iterations =  2.9

     total cpu time spent up to now is        3.0 secs

     total energy              =     -35.57459137 Ry
     Harris-Foulkes estimate   =     -35.57461959 Ry
     estimated scf accuracy    <       0.00007428 Ry

     iteration #  5     ecut=   100.00 Ry     beta=0.70
     Davidson diagonalization with overlap
     ethr =  9.29E-07,  avg # of iterations =  2.4

     total cpu time spent up to now is        3.5 secs

     total energy              =     -35.57461096 Ry
     Harris-Foulkes estimate   =     -35.57461960 Ry
     estimated scf accuracy    <       0.00001201 Ry

     iteration #  6     ecut=   100.00 Ry     beta=0.70
     Davidson diagonalization with overlap
     ethr =  1.50E-07,  avg # of iterations =  3.2

     total cpu time spent up to now is        4.0 secs

     End of self-consistent calculation

          k = 0.0000 0.0000 0.0000 (  1291 PWs)   bands (ev):

    -8.2436  10.4344  13.5749  15.8332

          k =-0.2500 0.2500-0.2500 (  1305 PWs)   bands (ev):

    -6.5367   7.0084   9.3509  12.7890

          k = 0.5000-0.5000 0.5000 (  1308 PWs)   bands (ev):

    -2.7066   0.3522   8.5367  11.8619

          k = 0.0000 0.5000 0.0000 (  1299 PWs)   bands (ev):

    -5.9836   7.0845   9.2073  10.5069

          k = 0.7500-0.2500 0.7500 (  1287 PWs)   bands (ev):

    -2.3680   3.0416   5.3115   8.8284

          k = 0.5000 0.0000 0.5000 (  1304 PWs)   bands (ev):

    -3.8113   4.2029   5.4640  10.4904

          k = 0.0000-1.0000 0.0000 (  1298 PWs)   bands (ev):

     0.2886   0.2886   7.0818   7.0818

          k =-0.5000-1.0000 0.0000 (  1256 PWs)   bands (ev):

     0.5875   1.8969   4.0379   5.4788

          k = 0.2500 0.2500-0.2500 (  1305 PWs)   bands (ev):

    -6.5462   5.7390  10.7709  12.9029

          k =-0.5000-0.5000 0.5000 (  1308 PWs)   bands (ev):

    -2.1575  -0.9747   9.4631  11.7980

          k = 0.0000 0.0000 0.5000 (  1299 PWs)   bands (ev):

    -5.9662   7.6228   8.8481   9.8057

          k =-0.2500-0.7500 0.7500 (  1287 PWs)   bands (ev):

    -2.2179   1.6976   6.8377   8.6432

          k =-0.7500 0.7500-0.2500 (  1287 PWs)   bands (ev):

    -2.3231   2.7384   6.9616   7.1143

          k =-0.7500-0.7500 0.2500 (  1287 PWs)   bands (ev):

    -2.1996   1.9685   5.8762   9.0936

          k =-0.5000 0.5000 0.0000 (  1304 PWs)   bands (ev):

    -3.8414   5.5374   5.5811   8.4134

          k =-0.5000-0.5000 0.0000 (  1304 PWs)   bands (ev):

    -3.8066   3.3811   5.6938  11.4351

          k = 0.0000 0.0000-1.0000 (  1298 PWs)   bands (ev):

    -0.1164   1.1284   5.7668   7.4708

          k = 0.0000 1.0000-0.5000 (  1256 PWs)   bands (ev):

     1.0211   1.0211   5.0458   5.0458

!    total energy              =     -35.57461589 Ry
     Harris-Foulkes estimate   =     -35.57461613 Ry
     estimated scf accuracy    <       0.00000077 Ry

     total all-electron energy =      -151.133612 Ry

     The total energy is the sum of the following terms:

     one-electron contribution =       8.40642331 Ry
     hartree contribution      =       1.96182730 Ry
     xc contribution           =      -8.39241036 Ry
     ewald contribution        =     -25.47879239 Ry
     one-center paw contrib.   =     -12.07166375 Ry

     convergence has been achieved in   6 iterations

     Forces acting on atoms (Ry/au):

     atom    1 type  1   force =     0.00000000    0.00000000   -0.25017822
     atom    2 type  1   force =     0.00000000    0.00000000    0.25017822

     Total force =     0.353805     Total SCF correction =     0.000200

     Writing output data file diamond.save

     init_run     :      0.78s CPU      0.79s WALL (       1 calls)
     electrons    :      2.62s CPU      2.94s WALL (       1 calls)
     forces       :      0.09s CPU      0.09s WALL (       1 calls)

     Called by init_run:
     wfcinit      :      0.18s CPU      0.19s WALL (       1 calls)
     potinit      :      0.05s CPU      0.05s WALL (       1 calls)

     Called by electrons:
     c_bands      :      1.75s CPU      1.92s WALL (       6 calls)
     sum_band     :      0.41s CPU      0.41s WALL (       6 calls)
     v_of_rho     :      0.06s CPU      0.06s WALL (       7 calls)
     newd         :      0.14s CPU      0.14s WALL (       7 calls)
     mix_rho      :      0.10s CPU      0.10s WALL (       6 calls)

     Called by c_bands:
     init_us_2    :      0.12s CPU      0.12s WALL (     252 calls)
     cegterg      :      1.59s CPU      1.66s WALL (     108 calls)

     Called by *egterg:
     h_psi        :      1.44s CPU      1.51s WALL (     431 calls)
     s_psi        :      0.08s CPU      0.08s WALL (     431 calls)
     g_psi        :      0.02s CPU      0.04s WALL (     305 calls)
     cdiaghg      :      0.02s CPU      0.02s WALL (     413 calls)

     Called by h_psi:
     add_vuspsi   :      0.09s CPU      0.07s WALL (     431 calls)

     General routines
     calbec       :      0.13s CPU      0.10s WALL (     557 calls)
     fft          :      0.04s CPU      0.03s WALL (      45 calls)
     fftw         :      1.26s CPU      1.36s WALL (    3304 calls)
     davcio       :      0.00s CPU      0.13s WALL (     360 calls)


     PAW routines
     PAW_pot      :      0.22s CPU      0.21s WALL (       7 calls)
     PAW_ddot     :      0.08s CPU      0.08s WALL (      36 calls)
     PAW_symme    :      0.00s CPU      0.00s WALL (      13 calls)

     PWSCF        :     3.85s CPU         4.18s WALL


   This run was terminated on:  17:50:50  26Mar2012            

=------------------------------------------------------------------------------=
   JOB DONE.
=------------------------------------------------------------------------------=
