
     Program PWSCF v.4.3.2      starts on 26Mar2012 at 17:50:27 

     This program is part of the open-source Quantum ESPRESSO suite
     for quantum simulation of materials; please cite
         "P. Giannozzi et al., J. Phys.:Condens. Matter 21 395502 (2009);
          URL http://www.quantum-espresso.org", 
     in publications or presentations arising from this work. More details at
     http://www.quantum-espresso.org/wiki/index.php/Citing_Quantum-ESPRESSO

     Current dimensions of program PWSCF are:
     Max number of different atomic species (ntypx) = 10
     Max number of k-points (npk) =  40000
     Max angular momentum in pseudopotentials (lmaxx) =  3
     Waiting for input...
     Reading input from stdin
     warning: symmetry operation #  5 not allowed.   fractional translation:
       0.2000000  0.2000000  0.3000000  in crystal coordinates
     warning: symmetry operation #  6 not allowed.   fractional translation:
       0.2000000  0.2000000  0.3000000  in crystal coordinates
     warning: symmetry operation # 25 not allowed.   fractional translation:
       0.2000000  0.2000000  0.3000000  in crystal coordinates
     warning: symmetry operation # 26 not allowed.   fractional translation:
       0.2000000  0.2000000  0.3000000  in crystal coordinates

     G-vector sticks info
     --------------------
     sticks:   dense  smooth     PW     G-vecs:    dense   smooth      PW
     Sum         187     187     61                 1687     1687     339



     bravais-lattice index     =            2
     lattice parameter (alat)  =       6.7400  a.u.
     unit-cell volume          =      76.5455 (a.u.)^3
     number of atoms/cell      =            2
     number of atomic types    =            1
     number of electrons       =         8.00
     number of Kohn-Sham states=            4
     kinetic-energy cutoff     =      30.0000  Ry
     charge density cutoff     =     120.0000  Ry
     convergence threshold     =      1.0E-06
     mixing beta               =       0.7000
     number of iterations used =            8  plain     mixing
     Exchange-correlation      =  SLA  PZ   NOGX NOGC ( 1 1 0 0 0)
     EXX-fraction              =        0.00

     celldm(1)=   6.740000  celldm(2)=   0.000000  celldm(3)=   0.000000
     celldm(4)=   0.000000  celldm(5)=   0.000000  celldm(6)=   0.000000

     crystal axes: (cart. coord. in units of alat)
               a(1) = (  -0.500000   0.000000   0.500000 )  
               a(2) = (   0.000000   0.500000   0.500000 )  
               a(3) = (  -0.500000   0.500000   0.000000 )  

     reciprocal axes: (cart. coord. in units 2 pi/alat)
               b(1) = ( -1.000000 -1.000000  1.000000 )  
               b(2) = (  1.000000  1.000000  1.000000 )  
               b(3) = ( -1.000000  1.000000 -1.000000 )  


     PseudoPot. # 1 for  C read from file:
     /home/sam/Documents/espresso-4.3.2/pseudo/C.pz-kjpaw.UPF
     MD5 check sum: 414e6e825ae75add557e798061b49a04
     Pseudo is Projector augmented-wave + core cor, Zval =  4.0
     Generated using "atomic" code by A. Dal Corso (espresso distribution)
     Shape of augmentation charge: BESSEL
     Using radial grid of 1073 points,  4 beta functions with: 
                l(1) =   0
                l(2) =   0
                l(3) =   1
                l(4) =   1
     Q(r) pseudized with 0 coefficients 


     atomic species   valence    mass     pseudopotential
        C              4.00    12.01070      C( 1.00)

      4 Sym.Ops. (no inversion)


   Cartesian axes

     site n.     atom                  positions (alat units)
         1           C   tau(   1) = (   0.0000000   0.0000000   0.0500000  )
         2           C   tau(   2) = (   0.2500000   0.2500000   0.2500000  )

     number of k points=    18
                       cart. coord. in units 2pi/alat
        k(    1) = (   0.0000000   0.0000000   0.0000000), wk =   0.0312500
        k(    2) = (  -0.2500000   0.2500000  -0.2500000), wk =   0.1250000
        k(    3) = (   0.5000000  -0.5000000   0.5000000), wk =   0.0625000
        k(    4) = (   0.0000000   0.5000000   0.0000000), wk =   0.1250000
        k(    5) = (   0.7500000  -0.2500000   0.7500000), wk =   0.2500000
        k(    6) = (   0.5000000   0.0000000   0.5000000), wk =   0.2500000
        k(    7) = (   0.0000000  -1.0000000   0.0000000), wk =   0.0625000
        k(    8) = (  -0.5000000  -1.0000000   0.0000000), wk =   0.1250000
        k(    9) = (   0.2500000   0.2500000  -0.2500000), wk =   0.1250000
        k(   10) = (  -0.5000000  -0.5000000   0.5000000), wk =   0.0625000
        k(   11) = (   0.0000000   0.0000000   0.5000000), wk =   0.0625000
        k(   12) = (  -0.2500000  -0.7500000   0.7500000), wk =   0.2500000
        k(   13) = (  -0.7500000   0.7500000  -0.2500000), wk =   0.1250000
        k(   14) = (  -0.7500000  -0.7500000   0.2500000), wk =   0.1250000
        k(   15) = (  -0.5000000   0.5000000   0.0000000), wk =   0.0625000
        k(   16) = (  -0.5000000  -0.5000000   0.0000000), wk =   0.0625000
        k(   17) = (   0.0000000   0.0000000  -1.0000000), wk =   0.0312500
        k(   18) = (   0.0000000   1.0000000  -0.5000000), wk =   0.0625000

     Dense  grid:     1687 G-vectors     FFT dimensions: (  18,  18,  18)

     Largest allocated arrays     est. size (Mb)     dimensions
        Kohn-Sham Wavefunctions         0.01 Mb     (    222,    4)
        NL pseudopotentials             0.05 Mb     (    222,   16)
        Each V/rho on FFT grid          0.09 Mb     (   5832)
        Each G-vector array             0.01 Mb     (   1687)
        G-vector shells                 0.00 Mb     (     47)
     Largest temporary arrays     est. size (Mb)     dimensions
        Auxiliary wavefunctions         0.05 Mb     (    222,   16)
        Each subspace H/S matrix        0.00 Mb     (  16,  16)
        Each <psi_i|beta_j> matrix      0.00 Mb     (     16,    4)
        Arrays for rho mixing           0.71 Mb     (   5832,   8)

     Check: negative/imaginary core charge=   -0.000060    0.000000

     Initial potential from superposition of free atoms

     starting charge    7.99993, renormalised to    8.00000
     Starting wfc are    8 atomic wfcs

     total cpu time spent up to now is        0.7 secs

     per-process dynamical memory:     3.2 Mb

     Self-consistent Calculation

     iteration #  1     ecut=    30.00 Ry     beta=0.70
     Davidson diagonalization with overlap
     ethr =  1.00E-02,  avg # of iterations =  2.2

     total cpu time spent up to now is        0.8 secs

     total energy              =     -35.54576507 Ry
     Harris-Foulkes estimate   =     -35.61807686 Ry
     estimated scf accuracy    <       0.13097496 Ry

     iteration #  2     ecut=    30.00 Ry     beta=0.70
     Davidson diagonalization with overlap
     ethr =  1.64E-03,  avg # of iterations =  2.0

     total cpu time spent up to now is        0.9 secs

     total energy              =     -35.56169627 Ry
     Harris-Foulkes estimate   =     -35.56279436 Ry
     estimated scf accuracy    <       0.00292138 Ry

     iteration #  3     ecut=    30.00 Ry     beta=0.70
     Davidson diagonalization with overlap
     ethr =  3.65E-05,  avg # of iterations =  2.9

     total cpu time spent up to now is        1.1 secs

     total energy              =     -35.56303265 Ry
     Harris-Foulkes estimate   =     -35.56306651 Ry
     estimated scf accuracy    <       0.00009244 Ry

     iteration #  4     ecut=    30.00 Ry     beta=0.70
     Davidson diagonalization with overlap
     ethr =  1.16E-06,  avg # of iterations =  2.9

     total cpu time spent up to now is        1.2 secs

     total energy              =     -35.56306895 Ry
     Harris-Foulkes estimate   =     -35.56307021 Ry
     estimated scf accuracy    <       0.00000493 Ry

     iteration #  5     ecut=    30.00 Ry     beta=0.70
     Davidson diagonalization with overlap
     ethr =  6.17E-08,  avg # of iterations =  2.7

     total cpu time spent up to now is        1.3 secs

     End of self-consistent calculation

          k = 0.0000 0.0000 0.0000 (   181 PWs)   bands (ev):

    -8.2469  10.5056  13.6656  15.9634

          k =-0.2500 0.2500-0.2500 (   205 PWs)   bands (ev):

    -6.5399   7.0189   9.3834  12.8397

          k = 0.5000-0.5000 0.5000 (   210 PWs)   bands (ev):

    -2.7109   0.3553   8.5661  11.9053

          k = 0.0000 0.5000 0.0000 (   218 PWs)   bands (ev):

    -5.9866   7.0938   9.2237  10.5201

          k = 0.7500-0.2500 0.7500 (   214 PWs)   bands (ev):

    -2.3710   3.0487   5.3211   8.8478

          k = 0.5000 0.0000 0.5000 (   218 PWs)   bands (ev):

    -3.8148   4.2082   5.4742  10.5065

          k = 0.0000-1.0000 0.0000 (   222 PWs)   bands (ev):

     0.2861   0.2861   7.0917   7.0917

          k =-0.5000-1.0000 0.0000 (   208 PWs)   bands (ev):

     0.5854   1.8997   4.0529   5.4945

          k = 0.2500 0.2500-0.2500 (   205 PWs)   bands (ev):

    -6.5491   5.7492  10.8050  12.9530

          k =-0.5000-0.5000 0.5000 (   210 PWs)   bands (ev):

    -2.1607  -0.9750   9.4952  11.8507

          k = 0.0000 0.0000 0.5000 (   218 PWs)   bands (ev):

    -5.9695   7.6443   8.8524   9.8246

          k =-0.2500-0.7500 0.7500 (   214 PWs)   bands (ev):

    -2.2195   1.7019   6.8507   8.6584

          k =-0.7500 0.7500-0.2500 (   214 PWs)   bands (ev):

    -2.3267   2.7449   6.9793   7.1246

          k =-0.7500-0.7500 0.2500 (   214 PWs)   bands (ev):

    -2.2012   1.9751   5.8841   9.1116

          k =-0.5000 0.5000 0.0000 (   218 PWs)   bands (ev):

    -3.8454   5.5479   5.5877   8.4303

          k =-0.5000-0.5000 0.0000 (   218 PWs)   bands (ev):

    -3.8098   3.3847   5.7040  11.4553

          k = 0.0000 0.0000-1.0000 (   222 PWs)   bands (ev):

    -0.1202   1.1265   5.7820   7.4826

          k = 0.0000 1.0000-0.5000 (   208 PWs)   bands (ev):

     1.0219   1.0219   5.0637   5.0637

!    total energy              =     -35.56307054 Ry
     Harris-Foulkes estimate   =     -35.56307062 Ry
     estimated scf accuracy    <       0.00000015 Ry

     total all-electron energy =      -151.122067 Ry

     The total energy is the sum of the following terms:

     one-electron contribution =       8.41217445 Ry
     hartree contribution      =       1.95959627 Ry
     xc contribution           =      -8.38914538 Ry
     ewald contribution        =     -25.47879243 Ry
     one-center paw contrib.   =     -12.06690345 Ry

     convergence has been achieved in   5 iterations

     Forces acting on atoms (Ry/au):

     atom    1 type  1   force =     0.00000000    0.00000000   -0.24297476
     atom    2 type  1   force =     0.00000000    0.00000000    0.24297476

     Total force =     0.343618     Total SCF correction =     0.000013

     Writing output data file diamond.save

     init_run     :      0.36s CPU      0.36s WALL (       1 calls)
     electrons    :      0.64s CPU      0.66s WALL (       1 calls)
     forces       :      0.02s CPU      0.02s WALL (       1 calls)

     Called by init_run:
     wfcinit      :      0.04s CPU      0.04s WALL (       1 calls)
     potinit      :      0.04s CPU      0.03s WALL (       1 calls)

     Called by electrons:
     c_bands      :      0.34s CPU      0.35s WALL (       5 calls)
     sum_band     :      0.08s CPU      0.07s WALL (       5 calls)
     v_of_rho     :      0.02s CPU      0.01s WALL (       6 calls)
     newd         :      0.02s CPU      0.02s WALL (       6 calls)
     mix_rho      :      0.05s CPU      0.05s WALL (       5 calls)

     Called by c_bands:
     init_us_2    :      0.02s CPU      0.02s WALL (     216 calls)
     cegterg      :      0.33s CPU      0.33s WALL (      90 calls)

     Called by *egterg:
     h_psi        :      0.33s CPU      0.31s WALL (     336 calls)
     s_psi        :      0.00s CPU      0.01s WALL (     336 calls)
     g_psi        :      0.00s CPU      0.00s WALL (     228 calls)
     cdiaghg      :      0.01s CPU      0.02s WALL (     318 calls)

     Called by h_psi:
     add_vuspsi   :      0.02s CPU      0.01s WALL (     336 calls)

     General routines
     calbec       :      0.01s CPU      0.01s WALL (     444 calls)
     fft          :      0.00s CPU      0.01s WALL (      39 calls)
     fftw         :      0.32s CPU      0.30s WALL (    2798 calls)
     davcio       :      0.00s CPU      0.00s WALL (     306 calls)


     PAW routines
     PAW_pot      :      0.17s CPU      0.18s WALL (       6 calls)
     PAW_ddot     :      0.05s CPU      0.05s WALL (      21 calls)
     PAW_symme    :      0.00s CPU      0.00s WALL (      11 calls)

     PWSCF        :     1.36s CPU         1.46s WALL


   This run was terminated on:  17:50:28  26Mar2012            

=------------------------------------------------------------------------------=
   JOB DONE.
=------------------------------------------------------------------------------=
