
     Program PWSCF v.4.3.2      starts on 26Mar2012 at 17:50:26 

     This program is part of the open-source Quantum ESPRESSO suite
     for quantum simulation of materials; please cite
         "P. Giannozzi et al., J. Phys.:Condens. Matter 21 395502 (2009);
          URL http://www.quantum-espresso.org", 
     in publications or presentations arising from this work. More details at
     http://www.quantum-espresso.org/wiki/index.php/Citing_Quantum-ESPRESSO

     Current dimensions of program PWSCF are:
     Max number of different atomic species (ntypx) = 10
     Max number of k-points (npk) =  40000
     Max angular momentum in pseudopotentials (lmaxx) =  3
     Waiting for input...
     Reading input from stdin
     warning: symmetry operation #  5 not allowed.   fractional translation:
       0.2000000  0.2000000  0.3000000  in crystal coordinates
     warning: symmetry operation #  6 not allowed.   fractional translation:
       0.2000000  0.2000000  0.3000000  in crystal coordinates
     warning: symmetry operation # 25 not allowed.   fractional translation:
       0.2000000  0.2000000  0.3000000  in crystal coordinates
     warning: symmetry operation # 26 not allowed.   fractional translation:
       0.2000000  0.2000000  0.3000000  in crystal coordinates

     G-vector sticks info
     --------------------
     sticks:   dense  smooth     PW     G-vecs:    dense   smooth      PW
     Sum         121     121     43                  941      941     181



     bravais-lattice index     =            2
     lattice parameter (alat)  =       6.7400  a.u.
     unit-cell volume          =      76.5455 (a.u.)^3
     number of atoms/cell      =            2
     number of atomic types    =            1
     number of electrons       =         8.00
     number of Kohn-Sham states=            4
     kinetic-energy cutoff     =      20.0000  Ry
     charge density cutoff     =      80.0000  Ry
     convergence threshold     =      1.0E-06
     mixing beta               =       0.7000
     number of iterations used =            8  plain     mixing
     Exchange-correlation      =  SLA  PZ   NOGX NOGC ( 1 1 0 0 0)
     EXX-fraction              =        0.00

     celldm(1)=   6.740000  celldm(2)=   0.000000  celldm(3)=   0.000000
     celldm(4)=   0.000000  celldm(5)=   0.000000  celldm(6)=   0.000000

     crystal axes: (cart. coord. in units of alat)
               a(1) = (  -0.500000   0.000000   0.500000 )  
               a(2) = (   0.000000   0.500000   0.500000 )  
               a(3) = (  -0.500000   0.500000   0.000000 )  

     reciprocal axes: (cart. coord. in units 2 pi/alat)
               b(1) = ( -1.000000 -1.000000  1.000000 )  
               b(2) = (  1.000000  1.000000  1.000000 )  
               b(3) = ( -1.000000  1.000000 -1.000000 )  


     PseudoPot. # 1 for  C read from file:
     /home/sam/Documents/espresso-4.3.2/pseudo/C.pz-kjpaw.UPF
     MD5 check sum: 414e6e825ae75add557e798061b49a04
     Pseudo is Projector augmented-wave + core cor, Zval =  4.0
     Generated using "atomic" code by A. Dal Corso (espresso distribution)
     Shape of augmentation charge: BESSEL
     Using radial grid of 1073 points,  4 beta functions with: 
                l(1) =   0
                l(2) =   0
                l(3) =   1
                l(4) =   1
     Q(r) pseudized with 0 coefficients 


     atomic species   valence    mass     pseudopotential
        C              4.00    12.01070      C( 1.00)

      4 Sym.Ops. (no inversion)


   Cartesian axes

     site n.     atom                  positions (alat units)
         1           C   tau(   1) = (   0.0000000   0.0000000   0.0500000  )
         2           C   tau(   2) = (   0.2500000   0.2500000   0.2500000  )

     number of k points=    18
                       cart. coord. in units 2pi/alat
        k(    1) = (   0.0000000   0.0000000   0.0000000), wk =   0.0312500
        k(    2) = (  -0.2500000   0.2500000  -0.2500000), wk =   0.1250000
        k(    3) = (   0.5000000  -0.5000000   0.5000000), wk =   0.0625000
        k(    4) = (   0.0000000   0.5000000   0.0000000), wk =   0.1250000
        k(    5) = (   0.7500000  -0.2500000   0.7500000), wk =   0.2500000
        k(    6) = (   0.5000000   0.0000000   0.5000000), wk =   0.2500000
        k(    7) = (   0.0000000  -1.0000000   0.0000000), wk =   0.0625000
        k(    8) = (  -0.5000000  -1.0000000   0.0000000), wk =   0.1250000
        k(    9) = (   0.2500000   0.2500000  -0.2500000), wk =   0.1250000
        k(   10) = (  -0.5000000  -0.5000000   0.5000000), wk =   0.0625000
        k(   11) = (   0.0000000   0.0000000   0.5000000), wk =   0.0625000
        k(   12) = (  -0.2500000  -0.7500000   0.7500000), wk =   0.2500000
        k(   13) = (  -0.7500000   0.7500000  -0.2500000), wk =   0.1250000
        k(   14) = (  -0.7500000  -0.7500000   0.2500000), wk =   0.1250000
        k(   15) = (  -0.5000000   0.5000000   0.0000000), wk =   0.0625000
        k(   16) = (  -0.5000000  -0.5000000   0.0000000), wk =   0.0625000
        k(   17) = (   0.0000000   0.0000000  -1.0000000), wk =   0.0312500
        k(   18) = (   0.0000000   1.0000000  -0.5000000), wk =   0.0625000

     Dense  grid:      941 G-vectors     FFT dimensions: (  15,  15,  15)

     Largest allocated arrays     est. size (Mb)     dimensions
        Kohn-Sham Wavefunctions         0.01 Mb     (    125,    4)
        NL pseudopotentials             0.03 Mb     (    125,   16)
        Each V/rho on FFT grid          0.05 Mb     (   3375)
        Each G-vector array             0.01 Mb     (    941)
        G-vector shells                 0.00 Mb     (     33)
     Largest temporary arrays     est. size (Mb)     dimensions
        Auxiliary wavefunctions         0.03 Mb     (    125,   16)
        Each subspace H/S matrix        0.00 Mb     (  16,  16)
        Each <psi_i|beta_j> matrix      0.00 Mb     (     16,    4)
        Arrays for rho mixing           0.41 Mb     (   3375,   8)

     Check: negative/imaginary core charge=   -0.000687    0.000000

     Initial potential from superposition of free atoms

     starting charge    7.99993, renormalised to    8.00000
     Starting wfc are    8 atomic wfcs

     total cpu time spent up to now is        0.6 secs

     per-process dynamical memory:     2.6 Mb

     Self-consistent Calculation

     iteration #  1     ecut=    20.00 Ry     beta=0.70
     Davidson diagonalization with overlap
     ethr =  1.00E-02,  avg # of iterations =  2.0

     total cpu time spent up to now is        0.6 secs

     total energy              =     -35.34083437 Ry
     Harris-Foulkes estimate   =     -35.39902570 Ry
     estimated scf accuracy    <       0.11118520 Ry

     iteration #  2     ecut=    20.00 Ry     beta=0.70
     Davidson diagonalization with overlap
     ethr =  1.39E-03,  avg # of iterations =  1.8

     total cpu time spent up to now is        0.7 secs

     total energy              =     -35.34964238 Ry
     Harris-Foulkes estimate   =     -35.35061580 Ry
     estimated scf accuracy    <       0.00226303 Ry

     iteration #  3     ecut=    20.00 Ry     beta=0.70
     Davidson diagonalization with overlap
     ethr =  2.83E-05,  avg # of iterations =  1.9

     total cpu time spent up to now is        0.8 secs

     total energy              =     -35.34997686 Ry
     Harris-Foulkes estimate   =     -35.35000353 Ry
     estimated scf accuracy    <       0.00005367 Ry

     iteration #  4     ecut=    20.00 Ry     beta=0.70
     Davidson diagonalization with overlap
     ethr =  6.71E-07,  avg # of iterations =  2.6

     total cpu time spent up to now is        0.9 secs

     End of self-consistent calculation

          k = 0.0000 0.0000 0.0000 (   113 PWs)   bands (ev):

    -8.3534  10.7559  14.1047  16.2842

          k =-0.2500 0.2500-0.2500 (   117 PWs)   bands (ev):

    -6.6335   7.3454   9.7175  13.3565

          k = 0.5000-0.5000 0.5000 (   120 PWs)   bands (ev):

    -2.8367   0.5897   8.7286  12.1866

          k = 0.0000 0.5000 0.0000 (   125 PWs)   bands (ev):

    -6.0750   7.2096   9.5338  10.8891

          k = 0.7500-0.2500 0.7500 (   113 PWs)   bands (ev):

    -2.4209   3.3337   5.5392   9.2699

          k = 0.5000 0.0000 0.5000 (   117 PWs)   bands (ev):

    -3.8611   4.3882   5.7244  10.9194

          k = 0.0000-1.0000 0.0000 (   116 PWs)   bands (ev):

     0.3632   0.3632   7.4517   7.4517

          k =-0.5000-1.0000 0.0000 (   108 PWs)   bands (ev):

     0.5733   2.0357   4.4440   5.8662

          k = 0.2500 0.2500-0.2500 (   117 PWs)   bands (ev):

    -6.6310   6.0961  11.2735  13.4969

          k =-0.5000-0.5000 0.5000 (   120 PWs)   bands (ev):

    -2.2219  -0.8238   9.7691  12.1193

          k = 0.0000 0.0000 0.5000 (   125 PWs)   bands (ev):

    -6.0552   7.7882   9.0081  10.2207

          k =-0.2500-0.7500 0.7500 (   113 PWs)   bands (ev):

    -2.2241   1.8799   7.2099   9.0477

          k =-0.7500 0.7500-0.2500 (   113 PWs)   bands (ev):

    -2.3797   2.9866   7.3153   7.4964

          k =-0.7500-0.7500 0.2500 (   113 PWs)   bands (ev):

    -2.2093   2.2069   6.0681   9.5773

          k =-0.5000 0.5000 0.0000 (   117 PWs)   bands (ev):

    -3.9133   5.8099   5.8697   8.8098

          k =-0.5000-0.5000 0.0000 (   117 PWs)   bands (ev):

    -3.8401   3.4892   5.9510  11.9230

          k = 0.0000 0.0000-1.0000 (   116 PWs)   bands (ev):

    -0.1498   1.3290   6.1138   7.8963

          k = 0.0000 1.0000-0.5000 (   108 PWs)   bands (ev):

     1.0883   1.0884   5.4692   5.4692

!    total energy              =     -35.34999371 Ry
     Harris-Foulkes estimate   =     -35.34999368 Ry
     estimated scf accuracy    <       0.00000052 Ry

     total all-electron energy =      -150.908990 Ry

     The total energy is the sum of the following terms:

     one-electron contribution =       8.61652978 Ry
     hartree contribution      =       1.88549950 Ry
     xc contribution           =      -8.34106147 Ry
     ewald contribution        =     -25.47879239 Ry
     one-center paw contrib.   =     -12.03216913 Ry

     convergence has been achieved in   4 iterations

     Forces acting on atoms (Ry/au):

     atom    1 type  1   force =     0.00000000    0.00000000   -0.35549119
     atom    2 type  1   force =     0.00000000    0.00000000    0.35549119

     Total force =     0.502740     Total SCF correction =     0.000237

     Writing output data file diamond.save

     init_run     :      0.28s CPU      0.29s WALL (       1 calls)
     electrons    :      0.30s CPU      0.31s WALL (       1 calls)
     forces       :      0.01s CPU      0.01s WALL (       1 calls)

     Called by init_run:
     wfcinit      :      0.02s CPU      0.02s WALL (       1 calls)
     potinit      :      0.03s CPU      0.04s WALL (       1 calls)

     Called by electrons:
     c_bands      :      0.11s CPU      0.12s WALL (       4 calls)
     sum_band     :      0.03s CPU      0.03s WALL (       4 calls)
     v_of_rho     :      0.02s CPU      0.01s WALL (       5 calls)
     newd         :      0.01s CPU      0.01s WALL (       5 calls)
     mix_rho      :      0.02s CPU      0.03s WALL (       4 calls)

     Called by c_bands:
     init_us_2    :      0.00s CPU      0.01s WALL (     180 calls)
     cegterg      :      0.11s CPU      0.11s WALL (      72 calls)

     Called by *egterg:
     h_psi        :      0.09s CPU      0.10s WALL (     238 calls)
     s_psi        :      0.00s CPU      0.00s WALL (     238 calls)
     g_psi        :      0.00s CPU      0.00s WALL (     148 calls)
     cdiaghg      :      0.02s CPU      0.01s WALL (     220 calls)

     Called by h_psi:
     add_vuspsi   :      0.00s CPU      0.00s WALL (     238 calls)

     General routines
     calbec       :      0.01s CPU      0.01s WALL (     328 calls)
     fft          :      0.00s CPU      0.00s WALL (      33 calls)
     fftw         :      0.08s CPU      0.08s WALL (    2128 calls)
     davcio       :      0.00s CPU      0.00s WALL (     252 calls)


     PAW routines
     PAW_pot      :      0.14s CPU      0.15s WALL (       5 calls)
     PAW_ddot     :      0.02s CPU      0.03s WALL (      11 calls)
     PAW_symme    :      0.00s CPU      0.00s WALL (       9 calls)

     PWSCF        :     0.93s CPU         0.98s WALL


   This run was terminated on:  17:50:27  26Mar2012            

=------------------------------------------------------------------------------=
   JOB DONE.
=------------------------------------------------------------------------------=
