LAMMPS (29 Jan 2012)
# Deformation and stress-strain curve for Au nanowire
# Basic settings
units metal
atom_style atomic
boundary m m p
# Geometry
lattice fcc 4.08 origin 0 0 0 orient z 1 1 0 orient x 0 0 -1 orient y -1 1 0
Lattice spacing in x,y,z = 4.08 5.76999 5.76999
region box block 0 10 0 5 0 40 units lattice side in
create_box 1 box
Created orthogonal box = (0 0 0) to (40.8 28.85 230.8)
  1 by 1 by 1 MPI processor grid
create_atoms 1 box
Created 16310 atoms
region 1  prism 5.1 10.0 0 5 -1 1000 10 0 0
region 2  prism -1.0 4.9 0 5 -1 1000 -10 0 0
region 3  prism 14.9 20.0 0 5 -1 1000 -10 0 0
region 4  prism -20 -4.5 0 5 -1 1000 10 0 0
group del1 region 1
1600 atoms in group del1
group del2 region 2
2000 atoms in group del2
group del3 region 3
2155 atoms in group del3
group del4 region 4
2586 atoms in group del4
##### Trim corners
delete_atoms group del1
Deleted 1600 atoms, new total = 14710
delete_atoms group del2
Deleted 2000 atoms, new total = 12710
delete_atoms group del3
Deleted 2155 atoms, new total = 10555
delete_atoms group del4
Deleted 2555 atoms, new total = 8000
# Specify inter-atomic potential
pair_style eam
pair_coeff * * Au_u3.eam 
neighbor 1.5 bin
neigh_modify every 1 delay 1
# Thermal equilibrium at 300K
velocity all create 300 20199349 dist gaussian
velocity all zero linear
velocity all zero angular
thermo 200
thermo_style custom step atoms temp pe lx ly lz pzz press
thermo_modify lost warn norm yes flush yes
timestep 0.005 #ps
#dump 1 all cfg 20000 initialpos.*.cfg id type xs ys zs # Visualize with AtomEye
fix 1 all npt temp 300.0 300.0 10.0 z 0.0 0.0 10.0 drag 2.0
run 40000
Memory usage per processor = 4.84478 Mbytes
Step Atoms Temp PotEng Lx Ly Lz Pzz Press 
       0     8000    299.99383   -3.7767455         40.8    28.850057    230.79965   -24030.629   -20049.338 
     200     8000    206.77914   -3.7651206         40.8    28.849957    228.06698    940.80907   -1532.0225 
     400     8000    210.57592   -3.7657425         40.8    28.896071    229.28161   -89.225746   -503.07664 
     600     8000    209.48924   -3.7653676         40.8    29.030572    230.02329    -5474.527   -4052.0446 
     800     8000    213.22472   -3.7657826         40.8    28.849957    228.17367    1788.0562    990.89047 
    1000     8000    219.20867   -3.7663847         40.8    28.849957    228.02334    2559.5334    2344.6901 
    1200     8000    213.40795   -3.7654622         40.8    28.849957    228.49913    2659.0006    2759.8864 
    1400     8000    215.66228   -3.7655646         40.8     28.89967    229.25759    2062.2165    2674.4096 
    1600     8000    217.23541   -3.7655996         40.8     28.98517    229.12138    1676.3219     2233.177 
    1800     8000    217.63486   -3.7654523         40.8    28.913834    228.43853    1871.2318    1674.7155 
    2000     8000    217.28553   -3.7652077         40.8    29.016498    228.43749    1378.9296    1397.7565 
    2200     8000     215.2673    -3.764752         40.8    28.895524    228.58243    641.38946    401.29026 
    2400     8000    217.50162   -3.7648505         40.8    28.959179     229.1129   -882.23201   -752.82909 
    2600     8000    217.60885   -3.7646827         40.8    29.037543    229.17685   -1032.7743   -726.26919 
    2800     8000    217.17272   -3.7644286         40.8    29.015235    228.79947   -1282.8048   -1367.7794 
    3000     8000    218.42262   -3.7643902         40.8    29.104223     228.5616   -1065.4112   -1494.4828 
    3200     8000     219.7627   -3.7643778         40.8     28.99068    228.73643   -1532.5052   -1705.8908 
    3400     8000    219.08249   -3.7640946         40.8    29.197306    229.04923   -1408.0781   -1277.9936 
    3600     8000     217.8681   -3.7637418         40.8    29.127038    229.00018   -502.10244   -539.78251 
    3800     8000    222.07148   -3.7640908         40.8    28.993576    228.90528   -534.89149   -370.69831 
    4000     8000    225.90671   -3.7643963         40.8     29.12882     228.6252    216.88259    150.06496 
    4200     8000    224.23454    -3.763993         40.8    29.110225    228.64031    802.83148    782.63384 
    4400     8000    224.96807   -3.7638954         40.8    29.062114    228.93237    941.22629    1163.2417 
    4600     8000    224.18081    -3.763599         40.8    28.948752    228.99489    244.68222    600.65169 
    4800     8000    225.51307   -3.7635811         40.8    29.047959     228.7203    1081.5196    982.75837 
    5000     8000    228.93841   -3.7638327         40.8    28.985615    228.78132    442.99115    522.14298 
    5200     8000    230.24597   -3.7638136         40.8    28.915528     228.6914    431.43594    311.47259 
    5400     8000    229.15025    -3.763481         40.8    29.034628    228.80687     151.7416    112.05754 
    5600     8000    229.12892   -3.7632896         40.8    29.005568    228.94503   -348.77608   -204.56551 
    5800     8000    228.09343   -3.7629669         40.8    28.994641     228.8626   -183.82212   -99.775538 
    6000     8000    232.50523   -3.7633495         40.8    29.007536    228.79759   -286.85466   -352.24862 
    6200     8000      232.298    -3.763136         40.8    28.908842    228.82358   -250.53364   -224.50829 
    6400     8000    232.15482   -3.7629308         40.8    28.915084     228.7825   -2.4991693   -41.659368 
    6600     8000    231.73544   -3.7626918         40.8    28.931661    228.79734   -44.354492    -122.6592 
    6800     8000    234.32055   -3.7628404         40.8    29.000115    228.88412    -160.7165   -25.536802 
    7000     8000    235.38193   -3.7627931         40.8    28.902604    228.81596    346.12047    329.36035 
    7200     8000    235.43141   -3.7626156         40.8    28.873765    228.82923    64.329207    12.301394 
    7400     8000    236.34576   -3.7625508         40.8    28.867054    228.87128     78.32353     158.9877 
    7600     8000    236.51736   -3.7623908         40.8    28.868671      228.797     562.1653    510.97178 
    7800     8000    239.21981   -3.7625591         40.8    28.849957    228.89417    146.03685    137.70431 
    8000     8000    238.54549   -3.7622917         40.8    28.878861    228.96728    -10.29908    3.3033911 
    8200     8000    238.34187    -3.762085         40.8    28.895732     228.9342    138.92691    215.43777 
    8400     8000      238.841   -3.7619722         40.8    28.906638    228.83282    184.35307    261.55246 
    8600     8000    239.56931   -3.7618869         40.8    28.875685    228.69144    358.76905    188.16578 
    8800     8000    240.13701   -3.7617845         40.8    28.881435    228.89069    167.83181    121.22473 
    9000     8000    238.97894   -3.7614577         40.8    28.918093    229.06675   -170.38318   -47.350365 
    9200     8000    240.98331   -3.7615418         40.8    28.979271    229.07857   -486.29557   -290.52417 
    9400     8000    241.01245   -3.7613713         40.8    29.149604    228.85405    -420.9688   -498.55672 
    9600     8000    242.10941   -3.7613385         40.8    28.963584    228.75023   -421.47005   -517.29753 
    9800     8000    242.23599   -3.7611845         40.8    28.978566    228.82711   -176.93413   -294.53655 
   10000     8000    241.91027   -3.7609693         40.8    28.999822    229.09188   -745.10512   -543.04831 
   10200     8000    244.33392   -3.7611106         40.8    28.988792     229.0229   -372.10516   -325.94578 
   10400     8000    245.04366   -3.7610315         40.8    29.173829    228.85056   -138.12714   -227.51294 
   10600     8000    247.76966   -3.7612141         40.8    29.005924    228.81527   -16.055636   -23.674346 
   10800     8000    247.05722   -3.7609535         40.8    29.072265    228.81223    379.74696    317.24569 
   11000     8000    247.44848   -3.7608366         40.8     29.13245    228.99123   -10.012413    7.8454355 
   11200     8000    245.75626   -3.7604491         40.8    29.048017    229.02478    161.53429    256.37266 
   11400     8000    248.38282   -3.7606224         40.8    29.102826    228.95469    201.06029    159.08831 
   11600     8000    247.43455   -3.7603338         40.8    29.048197    228.91108    17.287154    35.436696 
   11800     8000    249.90257   -3.7604891         40.8    29.130016    228.83667    582.72633    512.43984 
   12000     8000    250.23454   -3.7603681         40.8    29.175548    228.87465    227.57407    285.23403 
   12200     8000    249.68662   -3.7601341         40.8    29.228171    228.88809    684.07878    549.48432 
   12400     8000    253.38571   -3.7604514         40.8    29.138361    229.03432   -237.15799   -165.42039 
   12600     8000    253.93438   -3.7603618         40.8    29.233679    228.92525    77.073321   -61.802927 
   12800     8000    251.01958   -3.7598246         40.8    29.078325    228.92488    117.11084    85.313117 
   13000     8000    253.40322   -3.7599735         40.8    29.047482    228.99735   -116.55413   -79.307925 
   13200     8000    255.96005   -3.7601466         40.8    29.093892    228.98697   -436.71991   -434.85756 
   13400     8000    255.32375   -3.7599065         40.8    29.100361    228.80257    84.693629   -42.670998 
   13600     8000    255.95385   -3.7598336         40.8    29.056429     228.9217   -0.5133795    25.636125 
   13800     8000    254.77615   -3.7595245         40.8    29.139864    228.99638   -197.21498    -205.9357 
   14000     8000    257.04893   -3.7596664         40.8    29.051849    228.98584   -133.78336   -182.06008 
   14200     8000    254.40034   -3.7591683         40.8    28.985078    229.03816   -41.237614    191.39873 
   14400     8000    258.47479   -3.7595452         40.8    28.963616    228.78908    430.25164     361.8956 
   14600     8000    261.49308   -3.7597835         40.8    29.161433    228.79935    226.72044    223.02861 
   14800     8000    259.69743   -3.7594011         40.8    28.983735    228.94612    168.31927    120.11918 
   15000     8000    260.23017   -3.7593205         40.8    28.914172    229.00991    231.55972    281.50527 
   15200     8000    257.86953   -3.7588692         40.8    28.866689    228.96286    13.150681    42.987005 
   15400     8000    260.88723   -3.7591128         40.8    28.924733    228.83513   -436.28626   -587.89756 
   15600     8000    262.32053    -3.759151         40.8    28.849957    228.87139   -481.52328   -583.94342 
   15800     8000    261.72422   -3.7589288         40.8    29.017422    228.94721   -405.31684    -419.9749 
   16000     8000    259.29842    -3.758471         40.8    28.884845    228.96525   -502.98125    -546.1134 
   16200     8000    261.94254   -3.7586701         40.8    28.876031    229.01968   -601.70466   -617.23847 
   16400     8000    262.59306   -3.7586128         40.8    28.880195      228.847     257.3538    75.601998 
   16600     8000    264.88466   -3.7587697         40.8    28.916838    228.90397    169.39521    118.14194 
   16800     8000    262.49939    -3.758321         40.8    28.849957    229.05311    65.661796    271.30197 
   17000     8000    266.80341   -3.7587386         40.8    28.915618    228.96616    516.50345    487.72035 
   17200     8000    264.16378   -3.7582596         40.8    28.849957    228.92723   -23.952178   -6.4640611 
   17400     8000    267.07702   -3.7584995         40.8    28.908029    228.85263    796.31771    696.95024 
   17600     8000    266.76955    -3.758324         40.8    28.860432    228.93137    455.97897     519.2964 
   17800     8000    269.32941   -3.7585211         40.8    29.160041    228.99556   -214.62752   -97.565007 
   18000     8000    268.96557   -3.7583422         40.8    29.093745    228.96922   -184.53364    -129.4417 
   18200     8000    267.06372   -3.7579622         40.8    28.948094    228.86948    65.519476   -134.17762 
   18400     8000    268.22787   -3.7579823         40.8    28.951579    228.99166   -419.52499   -354.80599 
   18600     8000    266.41509   -3.7576178         40.8    28.933724    228.90308   -26.391826   -140.96899 
   18800     8000    267.78071   -3.7576651         40.8    28.927646     229.0166   -244.90092   -250.73874 
   19000     8000    268.96539   -3.7576911         40.8    29.003628    229.01647    69.213381    145.05016 
   19200     8000    269.12751   -3.7575844         40.8    29.048024    228.92287    508.73114    416.30571 
   19400     8000    271.17286   -3.7577245         40.8     29.07443    228.96108   -375.40481   -297.98371 
   19600     8000    271.11052   -3.7575919         40.8     29.06386    228.89064    111.12306   -75.661996 
   19800     8000    273.47888   -3.7577739         40.8    29.170865    229.08233   -606.75047   -381.50842 
   20000     8000    272.63373   -3.7575415         40.8     29.03442    228.98567    66.253998    39.523835 
   20200     8000    271.35607   -3.7572543         40.8    29.106504    228.93335   -194.52152   -209.65527 
   20400     8000    272.01902   -3.7572197         40.8     29.10114    228.86399   -50.501766   -51.680062 
   20600     8000    274.90714   -3.7574745         40.8     29.16971    228.86382    187.03117     166.4714 
   20800     8000    267.73309   -3.7564279         40.8    29.152515    228.98941    166.15614     163.7942 
   21000     8000     273.5587   -3.7570644         40.8    29.203392    229.09244   -100.78053    -41.12185 
   21200     8000    277.47205   -3.7574537         40.8    29.186654    229.07088    -116.6922    16.464293 
   21400     8000    275.24432   -3.7570508         40.8    29.083906    229.00714    323.19193    325.18421 
   21600     8000      274.076   -3.7567858         40.8    29.239259    228.95152    9.7570401    53.294071 
   21800     8000    276.37873   -3.7569719         40.8    29.110719    228.86689    153.19355   -9.1072227 
   22000     8000    276.51486   -3.7568793         40.8    29.070907    229.10562   -248.32075   -87.319185 
   22200     8000    276.08856   -3.7567128         40.8    29.019074    229.04611    143.73342    99.361655 
   22400     8000    275.04175    -3.756468         40.8    29.168686    229.10103    128.83975    234.15277 
   22600     8000    276.81624   -3.7565904         40.8    29.051243    228.93271    227.33899    128.70348 
   22800     8000     277.1036   -3.7565207         40.8    29.083188    228.93856    15.267815    18.625993 
   23000     8000    279.28149   -3.7566964         40.8    29.097277    228.97099   -191.78857   -203.08553 
   23200     8000    277.63771   -3.7563789         40.8    29.031272    228.96857    186.70162    104.75288 
   23400     8000    280.49104   -3.7566455         40.8    29.056668    229.11528   -114.47188   -24.000587 
   23600     8000    277.71501    -3.756185         40.8    28.990668    229.08387    5.5905974   -135.78442 
   23800     8000    279.97175   -3.7563756         40.8    28.916264    229.03124   -376.15416   -417.89194 
   24000     8000    280.81531   -3.7563845         40.8    28.860267    228.93727   -16.331974   -54.154234 
   24200     8000     281.2243   -3.7563385         40.8     29.05309    228.94556   -22.134064    39.418772 
   24400     8000    281.11095   -3.7562263         40.8    28.858197    228.98553    348.41958    254.58029 
   24600     8000    276.70655   -3.7555606         40.8    28.889969    229.06777   -67.689677    45.623474 
   24800     8000    281.35241   -3.7560662         40.8    28.868165    228.98722    551.88762    453.15935 
   25000     8000    282.54651   -3.7561259         40.8    28.901466    229.02146    361.80376    387.01006 
   25200     8000    279.66299   -3.7556604         40.8    28.914356    229.10773    277.88199    326.62036 
   25400     8000    284.11124   -3.7561435         40.8    28.849957    229.06212   -133.12223   -151.10709 
   25600     8000    284.90849    -3.756156         40.8    28.849957    228.98268    384.17496    237.58045 
   25800     8000    281.79041   -3.7556633         40.8    29.001013    229.08684    12.292917    106.74589 
   26000     8000    279.87127   -3.7553261         40.8    28.871295    229.09086   -48.229338   -4.6362049 
   26200     8000    283.77672   -3.7557441         40.8    28.864384    229.02723    115.50308    41.205503 
   26400     8000    286.32403   -3.7559871         40.8    28.950151    229.09294    5.7700051    92.606437 
   26600     8000    285.00916   -3.7557319         40.8     29.08118    228.95469    224.75165    210.05617 
   26800     8000    288.15054   -3.7560563         40.8     28.92848    228.99248    266.26753    223.30239 
   27000     8000    285.89568   -3.7556806         40.8     28.97389    229.11448    168.00193    180.81575 
   27200     8000    285.26144   -3.7555164         40.8    29.064848    229.12631    -163.0535   -88.325003 
   27400     8000    286.82096   -3.7556372         40.8    29.099495    229.08023    283.68142    263.21276 
   27600     8000     285.6141   -3.7554017         40.8    29.056081    229.07946    24.163836   -3.3789887 
   27800     8000    282.74291   -3.7549521         40.8    29.054482    229.10192    -543.1391   -387.96684 
   28000     8000    287.70333   -3.7555178         40.8    29.068662    228.94908    161.56385    61.796103 
   28200     8000     285.5073   -3.7551571         40.8    29.078515    228.89309    362.86977    170.72025 
   28400     8000    287.20338   -3.7553033         40.8    29.098559    229.05693   -156.85895    85.779339 
   28600     8000    290.91765    -3.755709         40.8    29.143258    229.01876    56.436852    20.271941 
   28800     8000    286.71588   -3.7550925         40.8    29.359717    229.11251   -27.329617    120.15951 
   29000     8000    287.23205   -3.7550891         40.8    29.132404    229.00156    240.39623    189.69848 
   29200     8000    285.70132   -3.7548211         40.8    29.116811    228.94437   -81.531645   -77.791879 
   29400     8000    286.67356   -3.7548781         40.8    29.225692    228.94901   -406.80548    -479.3418 
   29600     8000    287.06271   -3.7548601         40.8    29.375971    229.08471   -59.200396   -18.112422 
   29800     8000    289.09361   -3.7550558         40.8    29.259267    229.06307   -169.06583   -152.53413 
   30000     8000    286.95173   -3.7547122         40.8    29.211434    228.96004    141.88878    66.117897 
   30200     8000    289.22701   -3.7549418         40.8    29.257564     228.9781    95.245791    137.63802 
   30400     8000     289.7147   -3.7549411         40.8    29.279537    228.97683    207.93077    224.51144 
   30600     8000    291.09066    -3.755059         40.8     29.21488    229.14601    367.96892    378.71811 
   30800     8000    288.94195   -3.7547217         40.8    29.315925    229.20404     48.83241     290.9147 
   31000     8000     290.5956   -3.7548783         40.8    29.213174    228.81022    17.761292   -53.803848 
   31200     8000    289.57821   -3.7546864         40.8    29.235176    228.75007    606.13987    449.34385 
   31400     8000    291.26464   -3.7548459         40.8    29.201046    229.08239   -426.82363   -181.49584 
   31600     8000    291.20902   -3.7547825         40.8    29.366401    229.14668   -102.08322   -139.43615 
   31800     8000     291.0127   -3.7547002         40.8    29.171525    229.21248   -70.862291    49.319855 
   32000     8000    288.76686   -3.7543552         40.8    29.141953     229.1628   -141.85775    28.065168 
   32200     8000    291.41543   -3.7546436         40.8    29.227284    228.85394    374.95891    69.314176 
   32400     8000    296.12897   -3.7552001         40.8    28.960308    228.94696    358.94792     201.4819 
   32600     8000    289.87625   -3.7543394         40.8    29.201912    229.18276   -271.00034   -75.060586 
   32800     8000    292.77648   -3.7546638         40.8    29.034582    229.10944    134.63932    38.774978 
   33000     8000    291.49027   -3.7544476         40.8    28.985226    229.16913   -539.96614   -439.02305 
   33200     8000    292.63088   -3.7545477         40.8    28.997439    228.99129   -190.95616   -195.56594 
   33400     8000    296.02371   -3.7549409         40.8    29.036802    228.85512    242.03517    115.12533 
   33600     8000    294.50956   -3.7546988         40.8    28.978057    229.07131   -332.28252   -203.53226 
   33800     8000    289.49295   -3.7540016         40.8    28.925034    229.11839   -317.90082   -218.66261 
   34000     8000    294.27254   -3.7545766         40.8    28.897565    228.95537    122.74965    29.914637 
   34200     8000    296.91324   -3.7548747         40.8    28.924898    228.99446     176.7467    203.25296 
   34400     8000    294.37429   -3.7545024         40.8      28.9249    228.97651    478.43275    538.90228 
   34600     8000    296.87885    -3.754785         40.8    28.946739    229.00168    131.60182    108.25318 
   34800     8000    294.75442   -3.7544692         40.8    28.920494    229.07476    258.49413    327.45977 
   35000     8000    295.38057   -3.7545115         40.8    28.906336    229.00535    317.11214    345.54769 
   35200     8000    294.33756   -3.7543371         40.8    28.965868    228.93246    159.32302    37.433136 
   35400     8000    294.85975   -3.7543681         40.8    29.045534    229.07742   -285.59138   -266.23714 
   35600     8000    293.15159   -3.7541096         40.8    29.022752    229.10123   -322.17499   -323.72349 
   35800     8000    295.06191    -3.754321         40.8    29.095107    229.11037   -772.88678   -678.95119 
   36000     8000    293.03758   -3.7540215         40.8    29.261978    229.00329   -215.22868   -372.80754 
   36200     8000    295.40598   -3.7542934         40.8    29.182259    229.06841   -543.05654   -518.65017 
   36400     8000    293.40037   -3.7539979         40.8      29.0799    229.12631    -212.9526   -165.58727 
   36600     8000    293.16701   -3.7539339         40.8    29.116537    229.07641   -31.070004    7.6695522 
   36800     8000    295.58971   -3.7542153         40.8    29.122246    228.86628    251.80624    200.26463 
   37000     8000    299.88301   -3.7547406         40.8    29.104104    228.84498    474.15207    323.55297 
   37200     8000    295.71911   -3.7541736         40.8    29.260404    229.23079    396.15778     501.7208 
   37400     8000    294.30076   -3.7539595         40.8    29.201179    229.32428   -514.89282   -137.64485 
   37600     8000    297.13817   -3.7542978         40.8    29.414919    228.85154    852.92667    568.94058 
   37800     8000    295.44316   -3.7540477         40.8    29.387867    228.90278    290.09818    289.28005 
   38000     8000    297.19119   -3.7542463         40.8    29.324071     228.8943     181.7377    71.902678 
   38200     8000    294.05419   -3.7538162         40.8    29.459642    229.03709    382.84328    215.34173 
   38400     8000    295.90972   -3.7540259         40.8     29.37872    229.33419   -572.57192   -274.65534 
   38600     8000    293.55615   -3.7536965         40.8     29.24388    229.03983    243.48119    91.908777 
   38800     8000    294.82142   -3.7538317         40.8    29.128136     229.0013   -542.85373   -492.78194 
   39000     8000    296.02248   -3.7539616         40.8    29.146676    228.90059   -88.713964   -260.33056 
   39200     8000    298.28636   -3.7542322         40.8    29.235639    229.08031   -300.39343   -351.91311 
   39400     8000    292.79249   -3.7534963         40.8    29.280212     229.2165   -53.171843   -86.594586 
   39600     8000     295.4553   -3.7538154         40.8    29.172341    229.19607   -89.494905   -58.517563 
   39800     8000    298.22811   -3.7541522         40.8    29.158085    228.98861   -112.81559   -190.87917 
   40000     8000     296.9148   -3.7539589         40.8    29.142932    228.87114    165.19421   -51.469039 
Loop time of 624.056 on 1 procs for 40000 steps with 8000 atoms

Pair  time (%) = 585.872 (93.8813)
Neigh time (%) = 12.1398 (1.94531)
Comm  time (%) = 0.287422 (0.0460571)
Outpt time (%) = 0.112578 (0.0180397)
Other time (%) = 25.6444 (4.10931)

Nlocal:    8000 ave 8000 max 8000 min
Histogram: 1 0 0 0 0 0 0 0 0 0
Nghost:    484 ave 484 max 484 min
Histogram: 1 0 0 0 0 0 0 0 0 0
Neighs:    260894 ave 260894 max 260894 min
Histogram: 1 0 0 0 0 0 0 0 0 0

Total # of neighbors = 260894
Ave neighs/atom = 32.6118
Neighbor list builds = 920
Dangerous builds = 0
# Tensile loading
unfix 1
#undump 1
reset_timestep 0
compute MyTemp all temp
compute Mype all pe
compute peratom all stress/atom
# Computing time-averaged quantities - T & pe
fix ThermoAve all ave/time 1 100 200 c_MyTemp c_Mype
thermo 200
thermo_style custom step atoms f_ThermoAve[1] f_ThermoAve[2] lz vol pzz
WARNING: New thermo_style command, previous thermo_modify settings will be lost (output.cpp:471)
thermo_modify lost warn norm yes flush yes
fix 1 all nvt temp 300.0 300.0 10.0
log 	1E9e_200K.txt
