LAMMPS (29 Jan 2012)
# Deformation and stress-strain curve for Au nanowire
# Basic settings
units metal
atom_style atomic
boundary m m p
# Geometry
lattice fcc 4.08 origin 0 0 0 orient z 1 1 0 orient x 0 0 -1 orient y -1 1 0
Lattice spacing in x,y,z = 4.08 5.76999 5.76999
region box block 0 10 0 5 0 40 units lattice side in
create_box 1 box
Created orthogonal box = (0 0 0) to (40.8 28.85 230.8)
  1 by 1 by 4 MPI processor grid
create_atoms 1 box
Created 16310 atoms
region 1  prism 5.1 10.0 0 5 -1 1000 10 0 0
region 2  prism -1.0 4.9 0 5 -1 1000 -10 0 0
region 3  prism 14.9 20.0 0 5 -1 1000 -10 0 0
region 4  prism -20 -4.5 0 5 -1 1000 10 0 0
group del1 region 1
1600 atoms in group del1
group del2 region 2
2000 atoms in group del2
group del3 region 3
2155 atoms in group del3
group del4 region 4
2586 atoms in group del4
##### Trim corners
delete_atoms group del1
Deleted 1600 atoms, new total = 14710
delete_atoms group del2
Deleted 2000 atoms, new total = 12710
delete_atoms group del3
Deleted 2155 atoms, new total = 10555
delete_atoms group del4
Deleted 2555 atoms, new total = 8000
# Specify inter-atomic potential
#pair_style eam
#pair_coeff * * Au_u3.eam
mass 1 197
#pair_style		lj/cut/coul/cut 7.25 7.25
#pair_coeff		1 1 0.00169 2.934
pair_style		lj/cut 6.4225
pair_coeff		1 1 0.458 2.569
#pair_style		lj/cut 7.25
#pair_coeff		1 1 0.039 2.934
#pair_style		lj/cut 2.5
#pair_coeff		1 1 1.0 2.5 
pair_modify          shift yes

neighbor 1.5 bin
neigh_modify every 1 delay 1
# Thermal equilibrium at 300K
velocity all create 300 20199349 dist gaussian
velocity all zero linear
velocity all zero angular


thermo 200
#thermo_style custom step atoms temp pe lx ly lz pzz press
thermo_style custom step atoms temp pe lz pzz 
thermo_modify lost warn norm yes flush yes
timestep 0.005 #ps
#dump 1 all cfg 20000 initialpos.*.cfg id type xs ys zs # Visualize with AtomEye
fix 1 all npt temp 300.0 300.0 10.0 z 0.0 0.0 10.0 drag 2.0
run 20000
Memory usage per processor = 2.47598 Mbytes
Step Atoms Temp PotEng Lz Pzz 
       0     8000    299.97374   -2.9612587    230.79965   -62372.702 
     200     8000    283.40545   -2.9679126    226.33028     62.45051 
     400     8000    336.32083   -2.9793328    225.30864    4086.4516 
     600     8000    293.88227   -2.9745109    227.17503    2084.4428 
     800     8000    271.52037   -2.9732666    224.95098    19798.616 
    1000     8000    264.16255   -2.9730404    227.37689   -7380.5251 
    1200     8000    265.27631   -2.9737495    225.85011    683.76974 
    1400     8000    260.95995    -2.973131    227.03568   -8842.1095 
    1600     8000    259.08173   -2.9728964    226.17455   -4327.9539 
    1800     8000    278.77378   -2.9754216    226.50718    3293.3574 
    2000     8000    268.78278    -2.974029    225.89539    5766.1549 
    2200     8000    274.52167   -2.9746802    226.62013    1160.1469 
    2400     8000    271.77425   -2.9742673    226.20077       704.28 
    2600     8000    257.26156   -2.9722568    226.68766   -5677.0416 
    2800     8000    266.65154   -2.9734153    226.35049   -1353.3279 
    3000     8000    275.51007   -2.9744097    226.46926   -272.20204 
    3200     8000    272.57198   -2.9739333    226.16864    4465.6954 
    3400     8000    278.65128   -2.9746374    226.34762    3141.7907 
    3600     8000    267.63932   -2.9730769    226.51254   -3066.2024 
    3800     8000     268.8462   -2.9731241    226.46616   -1585.7026 
    4000     8000    274.95407   -2.9738047    226.47627   -2139.2946 
    4200     8000    275.37746   -2.9737491    226.37523    358.00004 
    4400     8000     275.4025    -2.973636    226.33158    3432.5367 
    4600     8000    275.00301   -2.9734844    226.35467    448.19199 
    4800     8000     276.1583   -2.9735102    226.46162   -26.258369 
    5000     8000    276.09951   -2.9733927    226.50558   -2631.7762 
    5200     8000    275.20561   -2.9731765    226.47841   -1447.7321 
    5400     8000    278.25758   -2.9734556    226.35657    1747.1057 
    5600     8000    276.43242   -2.9731106    226.41848    522.73233 
    5800     8000    277.80108   -2.9731789    226.39064    1809.6937 
    6000     8000    279.46777   -2.9732932    226.49762   -1480.7466 
    6200     8000     277.2049   -2.9728879    226.44468   -1078.3641 
    6400     8000    277.48237   -2.9728201    226.48528   -321.11033 
    6600     8000    275.95267   -2.9725187    226.40558    154.48828 
    6800     8000    284.45349   -2.9735175    226.40108    1692.5399 
    7000     8000    280.10027    -2.972855    226.38606    151.12335 
    7200     8000    278.59087   -2.9725556     226.4992   -1111.9418 
    7400     8000    282.91574   -2.9730167    226.43518   -289.56282 
    7600     8000    276.15735   -2.9720439    226.48221   -708.50567 
    7800     8000    283.83372   -2.9729434    226.37026    1057.0449 
    8000     8000    280.39271    -2.972399    226.47264    275.53019 
    8200     8000    285.87108    -2.973013    226.38854    537.43538 
    8400     8000    281.51878   -2.9723558    226.48526   -180.95585 
    8600     8000    280.64073   -2.9721483    226.47077   -1462.5192 
    8800     8000    281.09128   -2.9721195    226.45198   -13.409089 
    9000     8000    284.64829   -2.9724896    226.42643   -19.792279 
    9200     8000    280.99345   -2.9719242    226.40717    1352.6204 
    9400     8000    285.47347    -2.972422    226.45473    308.67336 
    9600     8000    286.33998   -2.9724456    226.48763   -1370.5387 
    9800     8000    283.23891   -2.9719555    226.48497   -238.04939 
   10000     8000    283.64251    -2.971924    226.44296   -392.80025 
   10200     8000    283.99452   -2.9718865    226.42344    773.75676 
   10400     8000    287.23033   -2.9722259    226.45516     393.9186 
   10600     8000    284.35127   -2.9717689      226.479    -679.9287 
   10800     8000    286.08494   -2.9719103    226.47019   -211.54872 
   11000     8000    284.03512   -2.9715631    226.46491   -487.87319 
   11200     8000    287.23337   -2.9719018    226.44692    358.09184 
   11400     8000    287.98374   -2.9719174    226.44402    487.77548 
   11600     8000    286.62924   -2.9716701    226.45629    109.54448 
   11800     8000     287.9618   -2.9717688    226.44905    70.812029 
   12000     8000    285.47076   -2.9713735    226.48266   -971.10847 
   12200     8000    287.85938    -2.971611    226.49152   -524.33723 
   12400     8000     285.9953   -2.9712938    226.42341     708.0486 
   12600     8000     286.8504   -2.9713353    226.43667    661.33886 
   12800     8000    289.02822   -2.9715509    226.44254    796.27714 
   13000     8000    285.78506   -2.9710634    226.50138   -775.08903 
   13200     8000    286.79216   -2.9711288    226.49957   -661.88977 
   13400     8000    287.76627   -2.9711908    226.45967   -32.074024 
   13600     8000    289.10346   -2.9712983    226.44931   -52.901716 
   13800     8000    289.04491   -2.9712257    226.45698    833.47959 
   14000     8000    292.39126   -2.9716008    226.41725    492.20181 
   14200     8000    288.44683   -2.9710248    226.49898   -542.41605 
   14400     8000    289.75041   -2.9711346    226.48815   -853.81716 
   14600     8000    286.38398   -2.9706396    226.50012   -532.99485 
   14800     8000    294.16237    -2.971595    226.41364    582.60024 
   15000     8000     287.8988   -2.9707215    226.45875    736.80496 
   15200     8000     294.9848   -2.9715891    226.43316    533.40353 
   15400     8000     291.8316   -2.9711286    226.49331   -219.67086 
   15600     8000    291.12439   -2.9709838    226.46815   -509.75524 
   15800     8000    288.15442   -2.9705426    226.50141    -240.4478 
   16000     8000    288.45696   -2.9705306    226.45804    383.91811 
   16200     8000    294.18889   -2.9712224    226.46326    544.32446 
   16400     8000    294.31265   -2.9711894    226.44777    773.99821 
   16600     8000    292.23842   -2.9708742    226.45774    79.102232 
   16800     8000    295.06076   -2.9711963    226.50424   -947.49733 
   17000     8000    293.42811   -2.9709342    226.50249   -944.84186 
   17200     8000    290.26066   -2.9704835    226.48349   -192.89404 
   17400     8000    294.65089   -2.9710062    226.43585    1003.2752 
   17600     8000    294.83367   -2.9709873    226.44767    756.09445 
   17800     8000    294.55603   -2.9709061    226.47312   -7.9063837 
   18000     8000    291.82781   -2.9705074    226.48857    -414.8888 
   18200     8000    291.92668   -2.9704799    226.47808   -478.08205 
   18400     8000    296.55778   -2.9710432    226.49967   -215.71039 
   18600     8000    295.89941   -2.9709162    226.44402    187.88112 
   18800     8000    294.44848   -2.9706917    226.44342    678.00361 
   19000     8000    294.17271   -2.9706159    226.46932    46.716523 
   19200     8000    291.96287   -2.9702928    226.49526   -501.41157 
   19400     8000    293.91526   -2.9705115    226.48874   -630.51178 
   19600     8000    293.45049   -2.9704165    226.50637   -177.09217 
   19800     8000    297.96167   -2.9709682     226.4537    555.06732 
   20000     8000    295.29894   -2.9705906    226.43564    737.15661 
Loop time of 48.4138 on 4 procs for 20000 steps with 8000 atoms

Pair  time (%) = 39.6211 (81.8385)
Neigh time (%) = 0.32101 (0.663056)
Comm  time (%) = 4.22914 (8.7354)
Outpt time (%) = 0.0268887 (0.0555393)
Other time (%) = 4.21562 (8.70748)

Nlocal:    2000 ave 2010 max 1993 min
Histogram: 1 1 0 0 1 0 0 0 0 1
Nghost:    550 ave 557 max 540 min
Histogram: 1 0 0 0 0 1 0 0 1 1
Neighs:    102799 ave 103585 max 102190 min
Histogram: 2 0 0 0 0 0 0 1 0 1

Total # of neighbors = 411197
Ave neighs/atom = 51.3996
Neighbor list builds = 70
Dangerous builds = 0
# Tensile loading
unfix 1
#undump 1
reset_timestep 0
compute MyTemp all temp
compute Mype all pe
compute peratom all stress/atom
#compute peatom all pe/atom
#compute	pe all reduce sum c_peatom
compute MyDisp all displace/atom 
# Computing time-averaged quantities - T & pe
fix ThermoAve all ave/time 1 100 200 c_MyTemp c_Mype
fix AveDz all ave/spatial 1 100 200 z 0.0 1.0 c_MyDisp[3]
thermo 200
thermo_style custom step atoms f_ThermoAve[1] f_ThermoAve[2] f_AveDz[1] lz vol pzz pe
WARNING: New thermo_style command, previous thermo_modify settings will be lost (output.cpp:471)
ERROR: Thermo fix does not compute vector (thermo.cpp:860)
