
     Program PWSCF v.4.3.2      starts on 26Mar2012 at 21:39:40 

     This program is part of the open-source Quantum ESPRESSO suite
     for quantum simulation of materials; please cite
         "P. Giannozzi et al., J. Phys.:Condens. Matter 21 395502 (2009);
          URL http://www.quantum-espresso.org", 
     in publications or presentations arising from this work. More details at
     http://www.quantum-espresso.org/wiki/index.php/Citing_Quantum-ESPRESSO

     Current dimensions of program PWSCF are:
     Max number of different atomic species (ntypx) = 10
     Max number of k-points (npk) =  40000
     Max angular momentum in pseudopotentials (lmaxx) =  3
     Waiting for input...
     Reading input from stdin
     warning: symmetry operation #  5 not allowed.   fractional translation:
       0.2000000  0.2000000  0.3000000  in crystal coordinates
     warning: symmetry operation #  6 not allowed.   fractional translation:
       0.2000000  0.2000000  0.3000000  in crystal coordinates
     warning: symmetry operation # 25 not allowed.   fractional translation:
       0.2000000  0.2000000  0.3000000  in crystal coordinates
     warning: symmetry operation # 26 not allowed.   fractional translation:
       0.2000000  0.2000000  0.3000000  in crystal coordinates

     G-vector sticks info
     --------------------
     sticks:   dense  smooth     PW     G-vecs:    dense   smooth      PW
     Sum         859     859    253                16625    16625    2733



     bravais-lattice index     =            2
     lattice parameter (alat)  =       6.6800  a.u.
     unit-cell volume          =      74.5194 (a.u.)^3
     number of atoms/cell      =            2
     number of atomic types    =            1
     number of electrons       =         8.00
     number of Kohn-Sham states=            4
     kinetic-energy cutoff     =     140.0000  Ry
     charge density cutoff     =     560.0000  Ry
     convergence threshold     =      1.0E-06
     mixing beta               =       0.7000
     number of iterations used =            8  plain     mixing
     Exchange-correlation      =  SLA  PZ   NOGX NOGC ( 1 1 0 0 0)
     EXX-fraction              =        0.00

     celldm(1)=   6.680000  celldm(2)=   0.000000  celldm(3)=   0.000000
     celldm(4)=   0.000000  celldm(5)=   0.000000  celldm(6)=   0.000000

     crystal axes: (cart. coord. in units of alat)
               a(1) = (  -0.500000   0.000000   0.500000 )  
               a(2) = (   0.000000   0.500000   0.500000 )  
               a(3) = (  -0.500000   0.500000   0.000000 )  

     reciprocal axes: (cart. coord. in units 2 pi/alat)
               b(1) = ( -1.000000 -1.000000  1.000000 )  
               b(2) = (  1.000000  1.000000  1.000000 )  
               b(3) = ( -1.000000  1.000000 -1.000000 )  


     PseudoPot. # 1 for  C read from file:
     /home/mullspace/Documents/espresso-4.3.2/pseudo/C.pz-kjpaw.UPF
     MD5 check sum: 414e6e825ae75add557e798061b49a04
     Pseudo is Projector augmented-wave + core cor, Zval =  4.0
     Generated using "atomic" code by A. Dal Corso (espresso distribution)
     Shape of augmentation charge: BESSEL
     Using radial grid of 1073 points,  4 beta functions with: 
                l(1) =   0
                l(2) =   0
                l(3) =   1
                l(4) =   1
     Q(r) pseudized with 0 coefficients 


     atomic species   valence    mass     pseudopotential
        C              4.00    12.01070      C( 1.00)

      4 Sym.Ops. (no inversion)


   Cartesian axes

     site n.     atom                  positions (alat units)
         1           C   tau(   1) = (   0.0000000   0.0000000   0.0500000  )
         2           C   tau(   2) = (   0.2500000   0.2500000   0.2500000  )

     number of k points=    95
                       cart. coord. in units 2pi/alat
        k(    1) = (   0.0000000   0.0000000   0.0000000), wk =   0.0039063
        k(    2) = (  -0.1250000   0.1250000  -0.1250000), wk =   0.0156250
        k(    3) = (  -0.2500000   0.2500000  -0.2500000), wk =   0.0156250
        k(    4) = (  -0.3750000   0.3750000  -0.3750000), wk =   0.0156250
        k(    5) = (   0.5000000  -0.5000000   0.5000000), wk =   0.0078125
        k(    6) = (   0.0000000   0.2500000   0.0000000), wk =   0.0156250
        k(    7) = (  -0.1250000   0.3750000  -0.1250000), wk =   0.0312500
        k(    8) = (  -0.2500000   0.5000000  -0.2500000), wk =   0.0312500
        k(    9) = (   0.6250000  -0.3750000   0.6250000), wk =   0.0312500
        k(   10) = (   0.5000000  -0.2500000   0.5000000), wk =   0.0312500
        k(   11) = (   0.3750000  -0.1250000   0.3750000), wk =   0.0312500
        k(   12) = (   0.2500000   0.0000000   0.2500000), wk =   0.0312500
        k(   13) = (   0.0000000   0.5000000   0.0000000), wk =   0.0156250
        k(   14) = (  -0.1250000   0.6250000  -0.1250000), wk =   0.0312500
        k(   15) = (   0.7500000  -0.2500000   0.7500000), wk =   0.0312500
        k(   16) = (   0.6250000  -0.1250000   0.6250000), wk =   0.0312500
        k(   17) = (   0.5000000   0.0000000   0.5000000), wk =   0.0312500
        k(   18) = (   0.0000000   0.7500000   0.0000000), wk =   0.0156250
        k(   19) = (   0.8750000  -0.1250000   0.8750000), wk =   0.0312500
        k(   20) = (   0.7500000   0.0000000   0.7500000), wk =   0.0312500
        k(   21) = (   0.0000000  -1.0000000   0.0000000), wk =   0.0078125
        k(   22) = (  -0.2500000   0.5000000   0.0000000), wk =   0.0156250
        k(   23) = (   0.6250000  -0.3750000   0.8750000), wk =   0.0312500
        k(   24) = (   0.5000000  -0.2500000   0.7500000), wk =   0.0312500
        k(   25) = (   0.7500000  -0.2500000   1.0000000), wk =   0.0156250
        k(   26) = (   0.6250000  -0.1250000   0.8750000), wk =   0.0312500
        k(   27) = (   0.5000000   0.0000000   0.7500000), wk =   0.0312500
        k(   28) = (  -0.2500000  -1.0000000   0.0000000), wk =   0.0156250
        k(   29) = (  -0.5000000  -1.0000000   0.0000000), wk =   0.0156250
        k(   30) = (   0.1250000   0.1250000  -0.1250000), wk =   0.0156250
        k(   31) = (   0.2500000   0.2500000  -0.2500000), wk =   0.0156250
        k(   32) = (   0.3750000   0.3750000  -0.3750000), wk =   0.0156250
        k(   33) = (  -0.5000000  -0.5000000   0.5000000), wk =   0.0078125
        k(   34) = (   0.0000000   0.0000000   0.2500000), wk =   0.0078125
        k(   35) = (   0.3750000   0.1250000  -0.1250000), wk =   0.0312500
        k(   36) = (   0.1250000  -0.1250000   0.3750000), wk =   0.0156250
        k(   37) = (   0.1250000   0.1250000  -0.3750000), wk =   0.0156250
        k(   38) = (   0.5000000   0.2500000  -0.2500000), wk =   0.0312500
        k(   39) = (   0.2500000  -0.2500000   0.5000000), wk =   0.0156250
        k(   40) = (   0.2500000   0.2500000  -0.5000000), wk =   0.0156250
        k(   41) = (  -0.3750000  -0.6250000   0.6250000), wk =   0.0312500
        k(   42) = (  -0.6250000   0.6250000  -0.3750000), wk =   0.0156250
        k(   43) = (  -0.6250000  -0.6250000   0.3750000), wk =   0.0156250
        k(   44) = (  -0.2500000  -0.5000000   0.5000000), wk =   0.0312500
        k(   45) = (  -0.5000000   0.5000000  -0.2500000), wk =   0.0156250
        k(   46) = (  -0.5000000  -0.5000000   0.2500000), wk =   0.0156250
        k(   47) = (  -0.1250000  -0.3750000   0.3750000), wk =   0.0312500
        k(   48) = (  -0.3750000   0.3750000  -0.1250000), wk =   0.0156250
        k(   49) = (  -0.3750000  -0.3750000   0.1250000), wk =   0.0156250
        k(   50) = (  -0.2500000   0.2500000   0.0000000), wk =   0.0078125
        k(   51) = (  -0.2500000  -0.2500000   0.0000000), wk =   0.0078125
        k(   52) = (   0.0000000   0.0000000   0.5000000), wk =   0.0078125
        k(   53) = (   0.6250000   0.1250000  -0.1250000), wk =   0.0312500
        k(   54) = (   0.1250000  -0.1250000   0.6250000), wk =   0.0156250
        k(   55) = (   0.1250000   0.1250000  -0.6250000), wk =   0.0156250
        k(   56) = (  -0.2500000  -0.7500000   0.7500000), wk =   0.0312500
        k(   57) = (  -0.7500000   0.7500000  -0.2500000), wk =   0.0156250
        k(   58) = (  -0.7500000  -0.7500000   0.2500000), wk =   0.0156250
        k(   59) = (  -0.1250000  -0.6250000   0.6250000), wk =   0.0312500
        k(   60) = (  -0.6250000   0.6250000  -0.1250000), wk =   0.0156250
        k(   61) = (  -0.6250000  -0.6250000   0.1250000), wk =   0.0156250
        k(   62) = (  -0.5000000   0.5000000   0.0000000), wk =   0.0078125
        k(   63) = (  -0.5000000  -0.5000000   0.0000000), wk =   0.0078125
        k(   64) = (   0.0000000   0.0000000   0.7500000), wk =   0.0078125
        k(   65) = (  -0.1250000  -0.8750000   0.8750000), wk =   0.0312500
        k(   66) = (  -0.8750000   0.8750000  -0.1250000), wk =   0.0156250
        k(   67) = (  -0.8750000  -0.8750000   0.1250000), wk =   0.0156250
        k(   68) = (  -0.7500000   0.7500000   0.0000000), wk =   0.0078125
        k(   69) = (  -0.7500000  -0.7500000   0.0000000), wk =   0.0078125
        k(   70) = (   0.0000000   0.0000000  -1.0000000), wk =   0.0039063
        k(   71) = (   0.5000000   0.2500000   0.0000000), wk =   0.0156250
        k(   72) = (   0.0000000  -0.5000000  -0.2500000), wk =   0.0312500
        k(   73) = (   0.2500000   0.0000000   0.5000000), wk =   0.0312500
        k(   74) = (  -0.3750000  -0.6250000   0.8750000), wk =   0.0312500
        k(   75) = (   0.8750000   0.3750000   0.6250000), wk =   0.0312500
        k(   76) = (  -0.8750000   0.3750000  -0.6250000), wk =   0.0312500
        k(   77) = (  -0.6250000   0.8750000  -0.3750000), wk =   0.0312500
        k(   78) = (  -0.6250000  -0.8750000   0.3750000), wk =   0.0312500
        k(   79) = (  -0.2500000  -0.5000000   0.7500000), wk =   0.0312500
        k(   80) = (   0.7500000   0.2500000   0.5000000), wk =   0.0156250
        k(   81) = (  -0.7500000   0.2500000  -0.5000000), wk =   0.0156250
        k(   82) = (  -0.2500000  -0.7500000   1.0000000), wk =   0.0156250
        k(   83) = (   1.0000000   0.2500000   0.7500000), wk =   0.0312500
        k(   84) = (  -0.7500000   1.0000000  -0.2500000), wk =   0.0312500
        k(   85) = (  -0.1250000  -0.6250000   0.8750000), wk =   0.0312500
        k(   86) = (   0.8750000   0.1250000   0.6250000), wk =   0.0312500
        k(   87) = (  -0.8750000   0.1250000  -0.6250000), wk =   0.0312500
        k(   88) = (  -0.6250000   0.8750000  -0.1250000), wk =   0.0312500
        k(   89) = (  -0.6250000  -0.8750000   0.1250000), wk =   0.0312500
        k(   90) = (   0.7500000   0.0000000   0.5000000), wk =   0.0312500
        k(   91) = (  -0.5000000   0.7500000   0.0000000), wk =   0.0156250
        k(   92) = (  -0.5000000  -0.7500000   0.0000000), wk =   0.0156250
        k(   93) = (   0.0000000   1.0000000  -0.2500000), wk =   0.0156250
        k(   94) = (   0.2500000   0.0000000  -1.0000000), wk =   0.0156250
        k(   95) = (   0.0000000   1.0000000  -0.5000000), wk =   0.0078125

     Dense  grid:    16625 G-vectors     FFT dimensions: (  36,  36,  36)

     Largest allocated arrays     est. size (Mb)     dimensions
        Kohn-Sham Wavefunctions         0.13 Mb     (   2120,    4)
        NL pseudopotentials             0.52 Mb     (   2120,   16)
        Each V/rho on FFT grid          0.71 Mb     (  46656)
        Each G-vector array             0.13 Mb     (  16625)
        G-vector shells                 0.00 Mb     (    213)
     Largest temporary arrays     est. size (Mb)     dimensions
        Auxiliary wavefunctions         0.52 Mb     (   2120,   16)
        Each subspace H/S matrix        0.00 Mb     (  16,  16)
        Each <psi_i|beta_j> matrix      0.00 Mb     (     16,    4)
        Arrays for rho mixing           5.70 Mb     (  46656,   8)

     Initial potential from superposition of free atoms

     starting charge    7.99993, renormalised to    8.00000
     Starting wfc are    8 atomic wfcs

     total cpu time spent up to now is        3.4 secs

     per-process dynamical memory:    10.6 Mb

     Self-consistent Calculation

     iteration #  1     ecut=   140.00 Ry     beta=0.70
     Davidson diagonalization with overlap
     ethr =  1.00E-02,  avg # of iterations =  2.9

     total cpu time spent up to now is        8.1 secs

     total energy              =     -35.55453175 Ry
     Harris-Foulkes estimate   =     -35.61212523 Ry
     estimated scf accuracy    <       0.10429388 Ry

     iteration #  2     ecut=   140.00 Ry     beta=0.70
     Davidson diagonalization with overlap
     ethr =  1.30E-03,  avg # of iterations =  2.8

     total cpu time spent up to now is       13.5 secs

     total energy              =     -35.58123708 Ry
     Harris-Foulkes estimate   =     -35.58584243 Ry
     estimated scf accuracy    <       0.00879235 Ry

     iteration #  3     ecut=   140.00 Ry     beta=0.70
     Davidson diagonalization with overlap
     ethr =  1.10E-04,  avg # of iterations =  2.7

     total cpu time spent up to now is       18.6 secs

     total energy              =     -35.58534215 Ry
     Harris-Foulkes estimate   =     -35.58588121 Ry
     estimated scf accuracy    <       0.00084001 Ry

     iteration #  4     ecut=   140.00 Ry     beta=0.70
     Davidson diagonalization with overlap
     ethr =  1.05E-05,  avg # of iterations =  3.1

     total cpu time spent up to now is       24.3 secs

     total energy              =     -35.58563316 Ry
     Harris-Foulkes estimate   =     -35.58564009 Ry
     estimated scf accuracy    <       0.00002799 Ry

     iteration #  5     ecut=   140.00 Ry     beta=0.70
     Davidson diagonalization with overlap
     ethr =  3.50E-07,  avg # of iterations =  2.6

     total cpu time spent up to now is       29.0 secs

     total energy              =     -35.58563991 Ry
     Harris-Foulkes estimate   =     -35.58564403 Ry
     estimated scf accuracy    <       0.00000666 Ry

     iteration #  6     ecut=   140.00 Ry     beta=0.70
     Davidson diagonalization with overlap
     ethr =  8.33E-08,  avg # of iterations =  3.1

     total cpu time spent up to now is       34.8 secs

     End of self-consistent calculation

          k = 0.0000 0.0000 0.0000 (  2085 PWs)   bands (ev):

    -8.1314  10.8486  14.0362  16.3306

          k =-0.1250 0.1250-0.1250 (  2079 PWs)   bands (ev):

    -7.6923  10.4807  11.7330  14.4225

          k =-0.2500 0.2500-0.2500 (  2085 PWs)   bands (ev):

    -6.3909   7.3426   9.7360  13.2177

          k =-0.3750 0.3750-0.3750 (  2072 PWs)   bands (ev):

    -4.3143   3.1328   9.1266  12.5055

          k = 0.5000-0.5000 0.5000 (  2060 PWs)   bands (ev):

    -2.4342   0.5098   8.9023  12.2714

          k = 0.0000 0.2500 0.0000 (  2077 PWs)   bands (ev):

    -7.5508   9.7412  12.0745  14.1215

          k =-0.1250 0.3750-0.1250 (  2071 PWs)   bands (ev):

    -6.5371   9.0064   9.2074  12.0805

          k =-0.2500 0.5000-0.2500 (  2072 PWs)   bands (ev):

    -4.7105   4.7974   8.4612  11.2530

          k = 0.6250-0.3750 0.6250 (  2082 PWs)   bands (ev):

    -2.4518   1.3340   7.8870  11.0919

          k = 0.5000-0.2500 0.5000 (  2083 PWs)   bands (ev):

    -3.1612   2.2660   7.6660  11.5880

          k = 0.3750-0.1250 0.3750 (  2078 PWs)   bands (ev):

    -5.4003   6.1059   7.9238  12.5441

          k = 0.2500 0.0000 0.2500 (  2079 PWs)   bands (ev):

    -6.9700   8.5929  10.3345  13.5566

          k = 0.0000 0.5000 0.0000 (  2045 PWs)   bands (ev):

    -5.8301   7.4609   9.5595  10.9042

          k =-0.1250 0.6250-0.1250 (  2081 PWs)   bands (ev):

    -4.2887   6.4922   7.0066   9.3667

          k = 0.7500-0.2500 0.7500 (  2092 PWs)   bands (ev):

    -2.1241   3.2920   5.6361   9.1692

          k = 0.6250-0.1250 0.6250 (  2088 PWs)   bands (ev):

    -1.4495   2.3974   4.8706   9.7536

          k = 0.5000 0.0000 0.5000 (  2085 PWs)   bands (ev):

    -3.6121   4.5212   5.7542  10.8716

          k = 0.0000 0.7500 0.0000 (  2084 PWs)   bands (ev):

    -3.0510   4.4202   7.8937   8.2884

          k = 0.8750-0.1250 0.8750 (  2089 PWs)   bands (ev):

    -1.1304   2.8236   5.9908   7.8383

          k = 0.7500 0.0000 0.7500 (  2097 PWs)   bands (ev):

     0.3865   1.6138   4.1363   8.3625

          k = 0.0000-1.0000 0.0000 (  2100 PWs)   bands (ev):

     0.5650   0.5650   7.3819   7.3819

          k =-0.2500 0.5000 0.0000 (  2074 PWs)   bands (ev):

    -5.2595   7.9433   8.3899   8.7522

          k = 0.6250-0.3750 0.8750 (  2080 PWs)   bands (ev):

    -3.2434   4.1843   7.6272   8.0574

          k = 0.5000-0.2500 0.7500 (  2092 PWs)   bands (ev):

    -1.4553   1.6347   6.7985   8.5512

          k = 0.7500-0.2500 1.0000 (  2085 PWs)   bands (ev):

    -2.5569   5.1315   6.4995   6.7492

          k = 0.6250-0.1250 0.8750 (  2094 PWs)   bands (ev):

    -0.5118   3.1289   4.3949   7.0375

          k = 0.5000 0.0000 0.7500 (  2091 PWs)   bands (ev):

    -1.0920   3.0339   4.3337   8.2119

          k =-0.2500-1.0000 0.0000 (  2098 PWs)   bands (ev):

     0.7281   1.1133   6.0970   6.4478

          k =-0.5000-1.0000 0.0000 (  2120 PWs)   bands (ev):

     0.9232   2.1968   4.2675   5.7205

          k = 0.1250 0.1250-0.1250 (  2079 PWs)   bands (ev):

    -7.6971   9.4487  12.8082  14.7443

          k = 0.2500 0.2500-0.2500 (  2085 PWs)   bands (ev):

    -6.4048   6.0757  11.1700  13.3331

          k = 0.3750 0.3750-0.3750 (  2072 PWs)   bands (ev):

    -4.2956   2.2372  10.1699  12.4846

          k =-0.5000-0.5000 0.5000 (  2060 PWs)   bands (ev):

    -1.9050  -0.7882   9.8372  12.2059

          k = 0.0000 0.0000 0.2500 (  2077 PWs)   bands (ev):

    -7.5466   9.8131  12.5927  12.9938

          k = 0.3750 0.1250-0.1250 (  2071 PWs)   bands (ev):

    -6.5484   7.2233  10.5162  13.1918

          k = 0.1250-0.1250 0.3750 (  2071 PWs)   bands (ev):

    -6.5322   8.8263   8.9507  12.5661

          k = 0.1250 0.1250-0.3750 (  2071 PWs)   bands (ev):

    -6.5359   7.4984  11.0858  11.6499

          k = 0.5000 0.2500-0.2500 (  2072 PWs)   bands (ev):

    -4.7141   3.6957   9.4547  11.7691

          k = 0.2500-0.2500 0.5000 (  2072 PWs)   bands (ev):

    -4.7005   4.6710   8.4027  11.4747

          k = 0.2500 0.2500-0.5000 (  2072 PWs)   bands (ev):

    -4.6967   3.7997   9.6757  11.0196

          k =-0.3750-0.6250 0.6250 (  2082 PWs)   bands (ev):

    -2.1770   0.2237   9.0375  10.9217

          k =-0.6250 0.6250-0.3750 (  2082 PWs)   bands (ev):

    -2.4345   1.2842   8.3676  10.4449

          k =-0.6250-0.6250 0.3750 (  2082 PWs)   bands (ev):

    -2.1661   0.2457   8.6870  11.1552

          k =-0.2500-0.5000 0.5000 (  2083 PWs)   bands (ev):

    -3.0683   1.3458   9.0042  11.0367

          k =-0.5000 0.5000-0.2500 (  2083 PWs)   bands (ev):

    -3.1702   2.3159   8.8374   9.8832

          k =-0.5000-0.5000 0.2500 (  2083 PWs)   bands (ev):

    -3.0790   1.3229   8.3360  12.0096

          k =-0.1250-0.3750 0.3750 (  2078 PWs)   bands (ev):

    -5.4048   5.0483   9.3845  12.0554

          k =-0.3750 0.3750-0.1250 (  2078 PWs)   bands (ev):

    -5.4004   6.2436   9.6393   9.9709

          k =-0.3750-0.3750 0.1250 (  2078 PWs)   bands (ev):

    -5.4213   4.8605   8.8342  13.4497

          k =-0.2500 0.2500 0.0000 (  2079 PWs)   bands (ev):

    -6.9657  10.2334  10.3794  11.1499

          k =-0.2500-0.2500 0.0000 (  2079 PWs)   bands (ev):

    -6.9826   7.7639  10.6433  15.0757

          k = 0.0000 0.0000 0.5000 (  2045 PWs)   bands (ev):

    -5.8119   7.9584   9.2733  10.1627

          k = 0.6250 0.1250-0.1250 (  2081 PWs)   bands (ev):

    -4.2909   4.9755   8.4027   9.7938

          k = 0.1250-0.1250 0.6250 (  2081 PWs)   bands (ev):

    -4.2619   6.2048   7.3266   9.0542

          k = 0.1250 0.1250-0.6250 (  2081 PWs)   bands (ev):

    -4.2598   5.5829   7.6478   9.3853

          k =-0.2500-0.7500 0.7500 (  2092 PWs)   bands (ev):

    -1.9959   1.9891   7.1503   8.9809

          k =-0.7500 0.7500-0.2500 (  2092 PWs)   bands (ev):

    -2.0781   2.9977   7.2825   7.4361

          k =-0.7500-0.7500 0.2500 (  2092 PWs)   bands (ev):

    -1.9698   2.2360   6.2052   9.4356

          k =-0.1250-0.6250 0.6250 (  2088 PWs)   bands (ev):

    -1.1924   1.2071   6.0570   9.5185

          k =-0.6250 0.6250-0.1250 (  2088 PWs)   bands (ev):

    -1.4897   2.4440   6.2656   7.8297

          k =-0.6250-0.6250 0.1250 (  2088 PWs)   bands (ev):

    -1.1428   1.1570   5.3659  10.3002

          k =-0.5000 0.5000 0.0000 (  2085 PWs)   bands (ev):

    -3.6330   5.8264   5.8919   8.7742

          k =-0.5000-0.5000 0.0000 (  2085 PWs)   bands (ev):

    -3.6197   3.7231   5.9711  11.8313

          k = 0.0000 0.0000 0.7500 (  2084 PWs)   bands (ev):

    -3.0055   5.1099   6.5582   8.3822

          k =-0.1250-0.8750 0.8750 (  2089 PWs)   bands (ev):

    -1.0554   2.3391   6.5302   7.7881

          k =-0.8750 0.8750-0.1250 (  2089 PWs)   bands (ev):

    -1.0669   3.0324   6.3883   6.7465

          k =-0.8750-0.8750 0.1250 (  2089 PWs)   bands (ev):

    -1.0259   3.0488   4.9931   8.2072

          k =-0.7500 0.7500 0.0000 (  2097 PWs)   bands (ev):

     0.0406   2.5169   4.5961   6.8636

          k =-0.7500-0.7500 0.0000 (  2097 PWs)   bands (ev):

     1.0909   1.1423   3.2809   8.8828

          k = 0.0000 0.0000-1.0000 (  2100 PWs)   bands (ev):

     0.1952   1.3644   6.0570   7.7767

          k = 0.5000 0.2500 0.0000 (  2074 PWs)   bands (ev):

    -5.2780   5.6039   8.2429  12.3000

          k = 0.0000-0.5000-0.2500 (  2074 PWs)   bands (ev):

    -5.2650   6.3897   7.9966  11.3116

          k = 0.2500 0.0000 0.5000 (  2074 PWs)   bands (ev):

    -5.2509   6.6144   7.7825  11.0008

          k =-0.3750-0.6250 0.8750 (  2080 PWs)   bands (ev):

    -3.2051   2.9009   6.9349  10.6910

          k = 0.8750 0.3750 0.6250 (  2080 PWs)   bands (ev):

    -3.2028   2.9976   7.7244   9.5729

          k =-0.8750 0.3750-0.6250 (  2080 PWs)   bands (ev):

    -3.2360   4.1026   5.9897  10.2616

          k =-0.6250 0.8750-0.3750 (  2080 PWs)   bands (ev):

    -3.2147   3.9404   6.4566   9.6912

          k =-0.6250-0.8750 0.3750 (  2080 PWs)   bands (ev):

    -3.1834   3.1317   7.1640   9.8294

          k =-0.2500-0.5000 0.7500 (  2092 PWs)   bands (ev):

    -0.8852   0.2169   6.8429   9.6827

          k = 0.7500 0.2500 0.5000 (  2092 PWs)   bands (ev):

    -0.8989   0.1809   8.1604   8.3816

          k =-0.7500 0.2500-0.5000 (  2092 PWs)   bands (ev):

    -1.4668   1.6834   5.8308   9.8295

          k =-0.2500-0.7500 1.0000 (  2085 PWs)   bands (ev):

    -2.5135   3.5182   6.6202   8.5849

          k = 1.0000 0.2500 0.7500 (  2085 PWs)   bands (ev):

    -2.5345   4.0639   6.5194   8.0254

          k =-0.7500 1.0000-0.2500 (  2085 PWs)   bands (ev):

    -2.4934   4.6414   5.7174   7.8891

          k =-0.1250-0.6250 0.8750 (  2094 PWs)   bands (ev):

    -0.0889   1.5210   5.1700   7.6283

          k = 0.8750 0.1250 0.6250 (  2094 PWs)   bands (ev):

    -0.1697   1.5736   5.8343   6.9796

          k =-0.8750 0.1250-0.6250 (  2094 PWs)   bands (ev):

    -0.4710   2.9227   4.0866   7.6869

          k =-0.6250 0.8750-0.1250 (  2094 PWs)   bands (ev):

    -0.4529   2.8140   5.4215   6.1094

          k =-0.6250-0.8750 0.1250 (  2094 PWs)   bands (ev):

    -0.1476   1.9801   4.4068   7.8642

          k = 0.7500 0.0000 0.5000 (  2091 PWs)   bands (ev):

    -1.1161   2.8405   4.5695   8.3144

          k =-0.5000 0.7500 0.0000 (  2091 PWs)   bands (ev):

    -1.2371   4.0729   4.7178   6.6394

          k =-0.5000-0.7500 0.0000 (  2091 PWs)   bands (ev):

    -0.9692   2.2350   4.4476   8.9581

          k = 0.0000 1.0000-0.2500 (  2098 PWs)   bands (ev):

     0.8974   0.8974   6.3147   6.3147

          k = 0.2500 0.0000-1.0000 (  2098 PWs)   bands (ev):

     0.4839   1.8223   5.0196   6.7804

          k = 0.0000 1.0000-0.5000 (  2120 PWs)   bands (ev):

     1.3358   1.3358   5.2849   5.2849

!    total energy              =     -35.58564210 Ry
     Harris-Foulkes estimate   =     -35.58564278 Ry
     estimated scf accuracy    <       0.00000064 Ry

     total all-electron energy =      -151.144638 Ry

     The total energy is the sum of the following terms:

     one-electron contribution =       8.71135539 Ry
     hartree contribution      =       1.91880009 Ry
     xc contribution           =      -8.43294664 Ry
     ewald contribution        =     -25.70764382 Ry
     one-center paw contrib.   =     -12.07520713 Ry

     convergence has been achieved in   6 iterations

     Forces acting on atoms (Ry/au):

     atom    1 type  1   force =     0.00000000    0.00000000   -0.24672841
     atom    2 type  1   force =     0.00000000    0.00000000    0.24672841

     Total force =     0.348927     Total SCF correction =     0.000307

     Writing output data file diamond.save

     init_run     :      3.30s CPU      3.19s WALL (       1 calls)
     electrons    :     33.32s CPU     31.40s WALL (       1 calls)
     forces       :      0.65s CPU      0.52s WALL (       1 calls)

     Called by init_run:
     wfcinit      :      2.50s CPU      2.37s WALL (       1 calls)
     potinit      :      0.05s CPU      0.05s WALL (       1 calls)

     Called by electrons:
     c_bands      :     28.40s CPU     26.31s WALL (       6 calls)
     sum_band     :      4.36s CPU      4.18s WALL (       6 calls)
     v_of_rho     :      0.08s CPU      0.08s WALL (       7 calls)
     newd         :      0.22s CPU      0.23s WALL (       7 calls)
     mix_rho      :      0.09s CPU      0.10s WALL (       6 calls)

     Called by c_bands:
     init_us_2    :      1.58s CPU      1.66s WALL (    1330 calls)
     cegterg      :     26.66s CPU     23.79s WALL (     570 calls)

     Called by *egterg:
     h_psi        :     22.19s CPU     21.16s WALL (    2311 calls)
     s_psi        :      1.86s CPU      1.11s WALL (    2311 calls)
     g_psi        :      0.14s CPU      0.16s WALL (    1646 calls)
     cdiaghg      :      0.43s CPU      0.45s WALL (    2216 calls)

     Called by h_psi:
     add_vuspsi   :      1.92s CPU      1.15s WALL (    2311 calls)

     General routines
     calbec       :      2.95s CPU      1.67s WALL (    2976 calls)
     fft          :      0.04s CPU      0.07s WALL (      45 calls)
     fftw         :     17.65s CPU     18.38s WALL (   17866 calls)
     davcio       :      0.20s CPU      0.89s WALL (    1900 calls)


     PAW routines
     PAW_pot      :      0.20s CPU      0.20s WALL (       7 calls)
     PAW_ddot     :      0.07s CPU      0.07s WALL (      36 calls)
     PAW_symme    :      0.00s CPU      0.00s WALL (      13 calls)

     PWSCF        :    37.71s CPU        35.70s WALL


   This run was terminated on:  21:40:16  26Mar2012            

=------------------------------------------------------------------------------=
   JOB DONE.
=------------------------------------------------------------------------------=
