
     Program PWSCF v.4.3.2      starts on 26Mar2012 at 21:39: 4 

     This program is part of the open-source Quantum ESPRESSO suite
     for quantum simulation of materials; please cite
         "P. Giannozzi et al., J. Phys.:Condens. Matter 21 395502 (2009);
          URL http://www.quantum-espresso.org", 
     in publications or presentations arising from this work. More details at
     http://www.quantum-espresso.org/wiki/index.php/Citing_Quantum-ESPRESSO

     Current dimensions of program PWSCF are:
     Max number of different atomic species (ntypx) = 10
     Max number of k-points (npk) =  40000
     Max angular momentum in pseudopotentials (lmaxx) =  3
     Waiting for input...
     Reading input from stdin
     warning: symmetry operation #  5 not allowed.   fractional translation:
       0.2000000  0.2000000  0.3000000  in crystal coordinates
     warning: symmetry operation #  6 not allowed.   fractional translation:
       0.2000000  0.2000000  0.3000000  in crystal coordinates
     warning: symmetry operation # 25 not allowed.   fractional translation:
       0.2000000  0.2000000  0.3000000  in crystal coordinates
     warning: symmetry operation # 26 not allowed.   fractional translation:
       0.2000000  0.2000000  0.3000000  in crystal coordinates

     G-vector sticks info
     --------------------
     sticks:   dense  smooth     PW     G-vecs:    dense   smooth      PW
     Sum         847     847    253                16529    16529    2733



     bravais-lattice index     =            2
     lattice parameter (alat)  =       6.6700  a.u.
     unit-cell volume          =      74.1852 (a.u.)^3
     number of atoms/cell      =            2
     number of atomic types    =            1
     number of electrons       =         8.00
     number of Kohn-Sham states=            4
     kinetic-energy cutoff     =     140.0000  Ry
     charge density cutoff     =     560.0000  Ry
     convergence threshold     =      1.0E-06
     mixing beta               =       0.7000
     number of iterations used =            8  plain     mixing
     Exchange-correlation      =  SLA  PZ   NOGX NOGC ( 1 1 0 0 0)
     EXX-fraction              =        0.00

     celldm(1)=   6.670000  celldm(2)=   0.000000  celldm(3)=   0.000000
     celldm(4)=   0.000000  celldm(5)=   0.000000  celldm(6)=   0.000000

     crystal axes: (cart. coord. in units of alat)
               a(1) = (  -0.500000   0.000000   0.500000 )  
               a(2) = (   0.000000   0.500000   0.500000 )  
               a(3) = (  -0.500000   0.500000   0.000000 )  

     reciprocal axes: (cart. coord. in units 2 pi/alat)
               b(1) = ( -1.000000 -1.000000  1.000000 )  
               b(2) = (  1.000000  1.000000  1.000000 )  
               b(3) = ( -1.000000  1.000000 -1.000000 )  


     PseudoPot. # 1 for  C read from file:
     /home/mullspace/Documents/espresso-4.3.2/pseudo/C.pz-kjpaw.UPF
     MD5 check sum: 414e6e825ae75add557e798061b49a04
     Pseudo is Projector augmented-wave + core cor, Zval =  4.0
     Generated using "atomic" code by A. Dal Corso (espresso distribution)
     Shape of augmentation charge: BESSEL
     Using radial grid of 1073 points,  4 beta functions with: 
                l(1) =   0
                l(2) =   0
                l(3) =   1
                l(4) =   1
     Q(r) pseudized with 0 coefficients 


     atomic species   valence    mass     pseudopotential
        C              4.00    12.01070      C( 1.00)

      4 Sym.Ops. (no inversion)


   Cartesian axes

     site n.     atom                  positions (alat units)
         1           C   tau(   1) = (   0.0000000   0.0000000   0.0500000  )
         2           C   tau(   2) = (   0.2500000   0.2500000   0.2500000  )

     number of k points=    95
                       cart. coord. in units 2pi/alat
        k(    1) = (   0.0000000   0.0000000   0.0000000), wk =   0.0039063
        k(    2) = (  -0.1250000   0.1250000  -0.1250000), wk =   0.0156250
        k(    3) = (  -0.2500000   0.2500000  -0.2500000), wk =   0.0156250
        k(    4) = (  -0.3750000   0.3750000  -0.3750000), wk =   0.0156250
        k(    5) = (   0.5000000  -0.5000000   0.5000000), wk =   0.0078125
        k(    6) = (   0.0000000   0.2500000   0.0000000), wk =   0.0156250
        k(    7) = (  -0.1250000   0.3750000  -0.1250000), wk =   0.0312500
        k(    8) = (  -0.2500000   0.5000000  -0.2500000), wk =   0.0312500
        k(    9) = (   0.6250000  -0.3750000   0.6250000), wk =   0.0312500
        k(   10) = (   0.5000000  -0.2500000   0.5000000), wk =   0.0312500
        k(   11) = (   0.3750000  -0.1250000   0.3750000), wk =   0.0312500
        k(   12) = (   0.2500000   0.0000000   0.2500000), wk =   0.0312500
        k(   13) = (   0.0000000   0.5000000   0.0000000), wk =   0.0156250
        k(   14) = (  -0.1250000   0.6250000  -0.1250000), wk =   0.0312500
        k(   15) = (   0.7500000  -0.2500000   0.7500000), wk =   0.0312500
        k(   16) = (   0.6250000  -0.1250000   0.6250000), wk =   0.0312500
        k(   17) = (   0.5000000   0.0000000   0.5000000), wk =   0.0312500
        k(   18) = (   0.0000000   0.7500000   0.0000000), wk =   0.0156250
        k(   19) = (   0.8750000  -0.1250000   0.8750000), wk =   0.0312500
        k(   20) = (   0.7500000   0.0000000   0.7500000), wk =   0.0312500
        k(   21) = (   0.0000000  -1.0000000   0.0000000), wk =   0.0078125
        k(   22) = (  -0.2500000   0.5000000   0.0000000), wk =   0.0156250
        k(   23) = (   0.6250000  -0.3750000   0.8750000), wk =   0.0312500
        k(   24) = (   0.5000000  -0.2500000   0.7500000), wk =   0.0312500
        k(   25) = (   0.7500000  -0.2500000   1.0000000), wk =   0.0156250
        k(   26) = (   0.6250000  -0.1250000   0.8750000), wk =   0.0312500
        k(   27) = (   0.5000000   0.0000000   0.7500000), wk =   0.0312500
        k(   28) = (  -0.2500000  -1.0000000   0.0000000), wk =   0.0156250
        k(   29) = (  -0.5000000  -1.0000000   0.0000000), wk =   0.0156250
        k(   30) = (   0.1250000   0.1250000  -0.1250000), wk =   0.0156250
        k(   31) = (   0.2500000   0.2500000  -0.2500000), wk =   0.0156250
        k(   32) = (   0.3750000   0.3750000  -0.3750000), wk =   0.0156250
        k(   33) = (  -0.5000000  -0.5000000   0.5000000), wk =   0.0078125
        k(   34) = (   0.0000000   0.0000000   0.2500000), wk =   0.0078125
        k(   35) = (   0.3750000   0.1250000  -0.1250000), wk =   0.0312500
        k(   36) = (   0.1250000  -0.1250000   0.3750000), wk =   0.0156250
        k(   37) = (   0.1250000   0.1250000  -0.3750000), wk =   0.0156250
        k(   38) = (   0.5000000   0.2500000  -0.2500000), wk =   0.0312500
        k(   39) = (   0.2500000  -0.2500000   0.5000000), wk =   0.0156250
        k(   40) = (   0.2500000   0.2500000  -0.5000000), wk =   0.0156250
        k(   41) = (  -0.3750000  -0.6250000   0.6250000), wk =   0.0312500
        k(   42) = (  -0.6250000   0.6250000  -0.3750000), wk =   0.0156250
        k(   43) = (  -0.6250000  -0.6250000   0.3750000), wk =   0.0156250
        k(   44) = (  -0.2500000  -0.5000000   0.5000000), wk =   0.0312500
        k(   45) = (  -0.5000000   0.5000000  -0.2500000), wk =   0.0156250
        k(   46) = (  -0.5000000  -0.5000000   0.2500000), wk =   0.0156250
        k(   47) = (  -0.1250000  -0.3750000   0.3750000), wk =   0.0312500
        k(   48) = (  -0.3750000   0.3750000  -0.1250000), wk =   0.0156250
        k(   49) = (  -0.3750000  -0.3750000   0.1250000), wk =   0.0156250
        k(   50) = (  -0.2500000   0.2500000   0.0000000), wk =   0.0078125
        k(   51) = (  -0.2500000  -0.2500000   0.0000000), wk =   0.0078125
        k(   52) = (   0.0000000   0.0000000   0.5000000), wk =   0.0078125
        k(   53) = (   0.6250000   0.1250000  -0.1250000), wk =   0.0312500
        k(   54) = (   0.1250000  -0.1250000   0.6250000), wk =   0.0156250
        k(   55) = (   0.1250000   0.1250000  -0.6250000), wk =   0.0156250
        k(   56) = (  -0.2500000  -0.7500000   0.7500000), wk =   0.0312500
        k(   57) = (  -0.7500000   0.7500000  -0.2500000), wk =   0.0156250
        k(   58) = (  -0.7500000  -0.7500000   0.2500000), wk =   0.0156250
        k(   59) = (  -0.1250000  -0.6250000   0.6250000), wk =   0.0312500
        k(   60) = (  -0.6250000   0.6250000  -0.1250000), wk =   0.0156250
        k(   61) = (  -0.6250000  -0.6250000   0.1250000), wk =   0.0156250
        k(   62) = (  -0.5000000   0.5000000   0.0000000), wk =   0.0078125
        k(   63) = (  -0.5000000  -0.5000000   0.0000000), wk =   0.0078125
        k(   64) = (   0.0000000   0.0000000   0.7500000), wk =   0.0078125
        k(   65) = (  -0.1250000  -0.8750000   0.8750000), wk =   0.0312500
        k(   66) = (  -0.8750000   0.8750000  -0.1250000), wk =   0.0156250
        k(   67) = (  -0.8750000  -0.8750000   0.1250000), wk =   0.0156250
        k(   68) = (  -0.7500000   0.7500000   0.0000000), wk =   0.0078125
        k(   69) = (  -0.7500000  -0.7500000   0.0000000), wk =   0.0078125
        k(   70) = (   0.0000000   0.0000000  -1.0000000), wk =   0.0039063
        k(   71) = (   0.5000000   0.2500000   0.0000000), wk =   0.0156250
        k(   72) = (   0.0000000  -0.5000000  -0.2500000), wk =   0.0312500
        k(   73) = (   0.2500000   0.0000000   0.5000000), wk =   0.0312500
        k(   74) = (  -0.3750000  -0.6250000   0.8750000), wk =   0.0312500
        k(   75) = (   0.8750000   0.3750000   0.6250000), wk =   0.0312500
        k(   76) = (  -0.8750000   0.3750000  -0.6250000), wk =   0.0312500
        k(   77) = (  -0.6250000   0.8750000  -0.3750000), wk =   0.0312500
        k(   78) = (  -0.6250000  -0.8750000   0.3750000), wk =   0.0312500
        k(   79) = (  -0.2500000  -0.5000000   0.7500000), wk =   0.0312500
        k(   80) = (   0.7500000   0.2500000   0.5000000), wk =   0.0156250
        k(   81) = (  -0.7500000   0.2500000  -0.5000000), wk =   0.0156250
        k(   82) = (  -0.2500000  -0.7500000   1.0000000), wk =   0.0156250
        k(   83) = (   1.0000000   0.2500000   0.7500000), wk =   0.0312500
        k(   84) = (  -0.7500000   1.0000000  -0.2500000), wk =   0.0312500
        k(   85) = (  -0.1250000  -0.6250000   0.8750000), wk =   0.0312500
        k(   86) = (   0.8750000   0.1250000   0.6250000), wk =   0.0312500
        k(   87) = (  -0.8750000   0.1250000  -0.6250000), wk =   0.0312500
        k(   88) = (  -0.6250000   0.8750000  -0.1250000), wk =   0.0312500
        k(   89) = (  -0.6250000  -0.8750000   0.1250000), wk =   0.0312500
        k(   90) = (   0.7500000   0.0000000   0.5000000), wk =   0.0312500
        k(   91) = (  -0.5000000   0.7500000   0.0000000), wk =   0.0156250
        k(   92) = (  -0.5000000  -0.7500000   0.0000000), wk =   0.0156250
        k(   93) = (   0.0000000   1.0000000  -0.2500000), wk =   0.0156250
        k(   94) = (   0.2500000   0.0000000  -1.0000000), wk =   0.0156250
        k(   95) = (   0.0000000   1.0000000  -0.5000000), wk =   0.0078125

     Dense  grid:    16529 G-vectors     FFT dimensions: (  36,  36,  36)

     Largest allocated arrays     est. size (Mb)     dimensions
        Kohn-Sham Wavefunctions         0.13 Mb     (   2120,    4)
        NL pseudopotentials             0.52 Mb     (   2120,   16)
        Each V/rho on FFT grid          0.71 Mb     (  46656)
        Each G-vector array             0.13 Mb     (  16529)
        G-vector shells                 0.00 Mb     (    212)
     Largest temporary arrays     est. size (Mb)     dimensions
        Auxiliary wavefunctions         0.52 Mb     (   2120,   16)
        Each subspace H/S matrix        0.00 Mb     (  16,  16)
        Each <psi_i|beta_j> matrix      0.00 Mb     (     16,    4)
        Arrays for rho mixing           5.70 Mb     (  46656,   8)

     Initial potential from superposition of free atoms

     starting charge    7.99993, renormalised to    8.00000
     Starting wfc are    8 atomic wfcs

     total cpu time spent up to now is        3.5 secs

     per-process dynamical memory:    10.6 Mb

     Self-consistent Calculation

     iteration #  1     ecut=   140.00 Ry     beta=0.70
     Davidson diagonalization with overlap
     ethr =  1.00E-02,  avg # of iterations =  2.9

     total cpu time spent up to now is        8.3 secs

     total energy              =     -35.55500484 Ry
     Harris-Foulkes estimate   =     -35.61465466 Ry
     estimated scf accuracy    <       0.10772297 Ry

     iteration #  2     ecut=   140.00 Ry     beta=0.70
     Davidson diagonalization with overlap
     ethr =  1.35E-03,  avg # of iterations =  2.8

     total cpu time spent up to now is       13.5 secs

     total energy              =     -35.58089759 Ry
     Harris-Foulkes estimate   =     -35.58524146 Ry
     estimated scf accuracy    <       0.00836754 Ry

     iteration #  3     ecut=   140.00 Ry     beta=0.70
     Davidson diagonalization with overlap
     ethr =  1.05E-04,  avg # of iterations =  2.7

     total cpu time spent up to now is       18.7 secs

     total energy              =     -35.58507278 Ry
     Harris-Foulkes estimate   =     -35.58557166 Ry
     estimated scf accuracy    <       0.00077564 Ry

     iteration #  4     ecut=   140.00 Ry     beta=0.70
     Davidson diagonalization with overlap
     ethr =  9.70E-06,  avg # of iterations =  3.1

     total cpu time spent up to now is       24.6 secs

     total energy              =     -35.58534687 Ry
     Harris-Foulkes estimate   =     -35.58535665 Ry
     estimated scf accuracy    <       0.00003268 Ry

     iteration #  5     ecut=   140.00 Ry     beta=0.70
     Davidson diagonalization with overlap
     ethr =  4.09E-07,  avg # of iterations =  2.4

     total cpu time spent up to now is       29.1 secs

     total energy              =     -35.58535146 Ry
     Harris-Foulkes estimate   =     -35.58535548 Ry
     estimated scf accuracy    <       0.00000505 Ry

     iteration #  6     ecut=   140.00 Ry     beta=0.70
     Davidson diagonalization with overlap
     ethr =  6.31E-08,  avg # of iterations =  3.4

     total cpu time spent up to now is       35.3 secs

     End of self-consistent calculation

          k = 0.0000 0.0000 0.0000 (  2085 PWs)   bands (ev):

    -8.1092  10.9245  14.1204  16.4211

          k =-0.1250 0.1250-0.1250 (  2067 PWs)   bands (ev):

    -7.6687  10.5547  11.8084  14.5053

          k =-0.2500 0.2500-0.2500 (  2067 PWs)   bands (ev):

    -6.3629   7.4035   9.8066  13.2960

          k =-0.3750 0.3750-0.3750 (  2072 PWs)   bands (ev):

    -4.2781   3.1788   9.1947  12.5813

          k = 0.5000-0.5000 0.5000 (  2060 PWs)   bands (ev):

    -2.3839   0.5395   8.9695  12.3464

          k = 0.0000 0.2500 0.0000 (  2061 PWs)   bands (ev):

    -7.5269   9.8142  12.1493  14.2047

          k =-0.1250 0.3750-0.1250 (  2064 PWs)   bands (ev):

    -6.5098   9.0722   9.2777  12.1561

          k =-0.2500 0.5000-0.2500 (  2072 PWs)   bands (ev):

    -4.6764   4.8493   8.5290  11.3247

          k = 0.6250-0.3750 0.6250 (  2074 PWs)   bands (ev):

    -2.4046   1.3693   7.9527  11.1624

          k = 0.5000-0.2500 0.5000 (  2068 PWs)   bands (ev):

    -3.1197   2.3078   7.7304  11.6605

          k = 0.3750-0.1250 0.3750 (  2064 PWs)   bands (ev):

    -5.3691   6.1634   7.9885  12.6206

          k = 0.2500 0.0000 0.2500 (  2067 PWs)   bands (ev):

    -6.9442   8.6610  10.4052  13.6370

          k = 0.0000 0.5000 0.0000 (  2045 PWs)   bands (ev):

    -5.8009   7.5295   9.6240  10.9768

          k =-0.1250 0.6250-0.1250 (  2075 PWs)   bands (ev):

    -4.2539   6.5598   7.0625   9.4311

          k = 0.7500-0.2500 0.7500 (  2081 PWs)   bands (ev):

    -2.0791   3.3382   5.6956   9.2318

          k = 0.6250-0.1250 0.6250 (  2074 PWs)   bands (ev):

    -1.3998   2.4386   4.9266   9.8186

          k = 0.5000 0.0000 0.5000 (  2085 PWs)   bands (ev):

    -3.5749   4.5794   5.8075  10.9414

          k = 0.0000 0.7500 0.0000 (  2072 PWs)   bands (ev):

    -3.0127   4.4837   7.9515   8.3476

          k = 0.8750-0.1250 0.8750 (  2078 PWs)   bands (ev):

    -1.0839   2.8811   6.0412   7.8955

          k = 0.7500 0.0000 0.7500 (  2085 PWs)   bands (ev):

     0.4434   1.6658   4.1761   8.4219

          k = 0.0000-1.0000 0.0000 (  2068 PWs)   bands (ev):

     0.6158   0.6158   7.4373   7.4373

          k =-0.2500 0.5000 0.0000 (  2056 PWs)   bands (ev):

    -5.2276   8.0038   8.4543   8.8218

          k = 0.6250-0.3750 0.8750 (  2072 PWs)   bands (ev):

    -3.2031   4.2334   7.6932   8.1172

          k = 0.5000-0.2500 0.7500 (  2062 PWs)   bands (ev):

    -1.4024   1.6697   6.8598   8.6134

          k = 0.7500-0.2500 1.0000 (  2085 PWs)   bands (ev):

    -2.5149   5.1956   6.5531   6.8029

          k = 0.6250-0.1250 0.8750 (  2085 PWs)   bands (ev):

    -0.4581   3.1809   4.4413   7.0923

          k = 0.5000 0.0000 0.7500 (  2074 PWs)   bands (ev):

    -1.0437   3.0893   4.3798   8.2705

          k =-0.2500-1.0000 0.0000 (  2082 PWs)   bands (ev):

     0.7838   1.1641   6.1483   6.4975

          k =-0.5000-1.0000 0.0000 (  2120 PWs)   bands (ev):

     0.9844   2.2523   4.3098   5.7648

          k = 0.1250 0.1250-0.1250 (  2067 PWs)   bands (ev):

    -7.6737   9.5203  12.8873  14.8277

          k = 0.2500 0.2500-0.2500 (  2067 PWs)   bands (ev):

    -6.3775   6.1371  11.2431  13.4113

          k = 0.3750 0.3750-0.3750 (  2072 PWs)   bands (ev):

    -4.2618   2.2869  10.2396  12.5600

          k =-0.5000-0.5000 0.5000 (  2060 PWs)   bands (ev):

    -1.8578  -0.7537   9.9059  12.2804

          k = 0.0000 0.0000 0.2500 (  2061 PWs)   bands (ev):

    -7.5227   9.8835  12.6763  13.0698

          k = 0.3750 0.1250-0.1250 (  2064 PWs)   bands (ev):

    -6.5216   7.2899  10.5848  13.2717

          k = 0.1250-0.1250 0.3750 (  2064 PWs)   bands (ev):

    -6.5050   8.8936   9.0170  12.6454

          k = 0.1250 0.1250-0.3750 (  2064 PWs)   bands (ev):

    -6.5088   7.5620  11.1643  11.7208

          k = 0.5000 0.2500-0.2500 (  2072 PWs)   bands (ev):

    -4.6818   3.7514   9.5205  11.8434

          k = 0.2500-0.2500 0.5000 (  2072 PWs)   bands (ev):

    -4.6666   4.7239   8.4669  11.5497

          k = 0.2500 0.2500-0.5000 (  2072 PWs)   bands (ev):

    -4.6639   3.8532   9.7478  11.0884

          k =-0.3750-0.6250 0.6250 (  2074 PWs)   bands (ev):

    -2.1350   0.2664   9.1033  10.9922

          k =-0.6250 0.6250-0.3750 (  2074 PWs)   bands (ev):

    -2.3873   1.3199   8.4320  10.5155

          k =-0.6250-0.6250 0.3750 (  2074 PWs)   bands (ev):

    -2.1234   0.2870   8.7542  11.2249

          k =-0.2500-0.5000 0.5000 (  2068 PWs)   bands (ev):

    -3.0299   1.3923   9.0705  11.1073

          k =-0.5000 0.5000-0.2500 (  2068 PWs)   bands (ev):

    -3.1281   2.3573   8.9042   9.9513

          k =-0.5000-0.5000 0.2500 (  2068 PWs)   bands (ev):

    -3.0415   1.3708   8.4001  12.0829

          k =-0.1250-0.3750 0.3750 (  2064 PWs)   bands (ev):

    -5.3743   5.1063   9.4519  12.1301

          k =-0.3750 0.3750-0.1250 (  2064 PWs)   bands (ev):

    -5.3688   6.3002   9.7098  10.0391

          k =-0.3750-0.3750 0.1250 (  2064 PWs)   bands (ev):

    -5.3914   4.9210   8.8975  13.5289

          k =-0.2500 0.2500 0.0000 (  2067 PWs)   bands (ev):

    -6.9396  10.3024  10.4534  11.2225

          k =-0.2500-0.2500 0.0000 (  2067 PWs)   bands (ev):

    -6.9572   7.8331  10.7114  15.1615

          k = 0.0000 0.0000 0.5000 (  2045 PWs)   bands (ev):

    -5.7825   8.0201   9.3507  10.2278

          k = 0.6250 0.1250-0.1250 (  2075 PWs)   bands (ev):

    -4.2571   5.0391   8.4626   9.8599

          k = 0.1250-0.1250 0.6250 (  2075 PWs)   bands (ev):

    -4.2271   6.2683   7.3857   9.1184

          k = 0.1250 0.1250-0.6250 (  2075 PWs)   bands (ev):

    -4.2253   5.6413   7.7154   9.4476

          k =-0.2500-0.7500 0.7500 (  2081 PWs)   bands (ev):

    -1.9546   2.0424   7.2077   9.0429

          k =-0.7500 0.7500-0.2500 (  2081 PWs)   bands (ev):

    -2.0329   3.0455   7.3416   7.4951

          k =-0.7500-0.7500 0.2500 (  2081 PWs)   bands (ev):

    -1.9272   2.2852   6.2655   9.4982

          k =-0.1250-0.6250 0.6250 (  2074 PWs)   bands (ev):

    -1.1454   1.2534   6.1117   9.5828

          k =-0.6250 0.6250-0.1250 (  2074 PWs)   bands (ev):

    -1.4384   2.4841   6.3211   7.8915

          k =-0.6250-0.6250 0.1250 (  2074 PWs)   bands (ev):

    -1.0986   1.2064   5.4201  10.3663

          k =-0.5000 0.5000 0.0000 (  2085 PWs)   bands (ev):

    -3.5943   5.8792   5.9491   8.8405

          k =-0.5000-0.5000 0.0000 (  2085 PWs)   bands (ev):

    -3.5845   3.7854   6.0222  11.9036

          k = 0.0000 0.0000 0.7500 (  2072 PWs)   bands (ev):

    -2.9666   5.1740   6.6140   8.4406

          k =-0.1250-0.8750 0.8750 (  2078 PWs)   bands (ev):

    -1.0110   2.3986   6.5808   7.8450

          k =-0.8750 0.8750-0.1250 (  2078 PWs)   bands (ev):

    -1.0194   3.0884   6.4434   6.7972

          k =-0.8750-0.8750 0.1250 (  2078 PWs)   bands (ev):

    -0.9793   3.1065   5.0423   8.2651

          k =-0.7500 0.7500 0.0000 (  2085 PWs)   bands (ev):

     0.1008   2.5644   4.6361   6.9209

          k =-0.7500-0.7500 0.0000 (  2085 PWs)   bands (ev):

     1.1490   1.1949   3.3190   8.9433

          k = 0.0000 0.0000-1.0000 (  2068 PWs)   bands (ev):

     0.2518   1.4085   6.1107   7.8330

          k = 0.5000 0.2500 0.0000 (  2056 PWs)   bands (ev):

    -5.2476   5.6697   8.3019  12.3749

          k = 0.0000-0.5000-0.2500 (  2056 PWs)   bands (ev):

    -5.2338   6.4540   8.0574  11.3836

          k = 0.2500 0.0000 0.5000 (  2056 PWs)   bands (ev):

    -5.2196   6.6761   7.8455  11.0728

          k =-0.3750-0.6250 0.8750 (  2072 PWs)   bands (ev):

    -3.1684   2.9572   6.9928  10.7583

          k = 0.8750 0.3750 0.6250 (  2072 PWs)   bands (ev):

    -3.1649   3.0516   7.7840   9.6388

          k =-0.8750 0.3750-0.6250 (  2072 PWs)   bands (ev):

    -3.1966   4.1528   6.0506  10.3276

          k =-0.6250 0.8750-0.3750 (  2072 PWs)   bands (ev):

    -3.1752   3.9917   6.5153   9.7579

          k =-0.6250-0.8750 0.3750 (  2072 PWs)   bands (ev):

    -3.1451   3.1835   7.2266   9.8941

          k =-0.2500-0.5000 0.7500 (  2062 PWs)   bands (ev):

    -0.8354   0.2568   6.9041   9.7455

          k = 0.7500 0.2500 0.5000 (  2062 PWs)   bands (ev):

    -0.8485   0.2209   8.2201   8.4448

          k =-0.7500 0.2500-0.5000 (  2062 PWs)   bands (ev):

    -1.4148   1.7184   5.8926   9.8928

          k =-0.2500-0.7500 1.0000 (  2085 PWs)   bands (ev):

    -2.4745   3.5823   6.6733   8.6423

          k = 1.0000 0.2500 0.7500 (  2085 PWs)   bands (ev):

    -2.4940   4.1265   6.5732   8.0819

          k =-0.7500 1.0000-0.2500 (  2085 PWs)   bands (ev):

    -2.4522   4.7040   5.7706   7.9449

          k =-0.1250-0.6250 0.8750 (  2085 PWs)   bands (ev):

    -0.0411   1.5773   5.2194   7.6821

          k = 0.8750 0.1250 0.6250 (  2085 PWs)   bands (ev):

    -0.1200   1.6277   5.8832   7.0339

          k =-0.8750 0.1250-0.6250 (  2085 PWs)   bands (ev):

    -0.4190   2.9800   4.1296   7.7414

          k =-0.6250 0.8750-0.1250 (  2085 PWs)   bands (ev):

    -0.3987   2.8630   5.4736   6.1595

          k =-0.6250-0.8750 0.1250 (  2085 PWs)   bands (ev):

    -0.0965   2.0319   4.4566   7.9191

          k = 0.7500 0.0000 0.5000 (  2074 PWs)   bands (ev):

    -1.0685   2.8973   4.6148   8.3729

          k =-0.5000 0.7500 0.0000 (  2074 PWs)   bands (ev):

    -1.1864   4.1267   4.7627   6.6966

          k =-0.5000-0.7500 0.0000 (  2074 PWs)   bands (ev):

    -0.9255   2.2960   4.4929   9.0177

          k = 0.0000 1.0000-0.2500 (  2082 PWs)   bands (ev):

     0.9507   0.9507   6.3651   6.3651

          k = 0.2500 0.0000-1.0000 (  2082 PWs)   bands (ev):

     0.5426   1.8697   5.0694   6.8312

          k = 0.0000 1.0000-0.5000 (  2120 PWs)   bands (ev):

     1.3935   1.3935   5.3289   5.3289

!    total energy              =     -35.58535371 Ry
     Harris-Foulkes estimate   =     -35.58535432 Ry
     estimated scf accuracy    <       0.00000067 Ry

     total all-electron energy =      -151.144350 Ry

     The total energy is the sum of the following terms:

     one-electron contribution =       8.76301255 Ry
     hartree contribution      =       1.91421480 Ry
     xc contribution           =      -8.44082431 Ry
     ewald contribution        =     -25.74618601 Ry
     one-center paw contrib.   =     -12.07557073 Ry

     convergence has been achieved in   6 iterations

     Forces acting on atoms (Ry/au):

     atom    1 type  1   force =     0.00000000    0.00000000   -0.24864785
     atom    2 type  1   force =     0.00000000    0.00000000    0.24864785

     Total force =     0.351641     Total SCF correction =     0.000244

     Writing output data file diamond.save

     init_run     :      3.37s CPU      3.27s WALL (       1 calls)
     electrons    :     33.60s CPU     31.83s WALL (       1 calls)
     forces       :      0.64s CPU      0.52s WALL (       1 calls)

     Called by init_run:
     wfcinit      :      2.57s CPU      2.43s WALL (       1 calls)
     potinit      :      0.05s CPU      0.05s WALL (       1 calls)

     Called by electrons:
     c_bands      :     28.75s CPU     26.87s WALL (       6 calls)
     sum_band     :      4.30s CPU      4.20s WALL (       6 calls)
     v_of_rho     :      0.08s CPU      0.08s WALL (       7 calls)
     newd         :      0.22s CPU      0.23s WALL (       7 calls)
     mix_rho      :      0.09s CPU      0.10s WALL (       6 calls)

     Called by c_bands:
     init_us_2    :      1.55s CPU      1.66s WALL (    1330 calls)
     cegterg      :     26.99s CPU     24.32s WALL (     570 calls)

     Called by *egterg:
     h_psi        :     22.47s CPU     21.64s WALL (    2313 calls)
     s_psi        :      1.95s CPU      1.12s WALL (    2313 calls)
     g_psi        :      0.11s CPU      0.17s WALL (    1648 calls)
     cdiaghg      :      0.43s CPU      0.46s WALL (    2218 calls)

     Called by h_psi:
     add_vuspsi   :      1.85s CPU      1.17s WALL (    2313 calls)

     General routines
     calbec       :      2.72s CPU      1.70s WALL (    2978 calls)
     fft          :      0.08s CPU      0.07s WALL (      45 calls)
     fftw         :     18.20s CPU     18.77s WALL (   18010 calls)
     davcio       :      0.20s CPU      0.93s WALL (    1900 calls)


     PAW routines
     PAW_pot      :      0.20s CPU      0.20s WALL (       7 calls)
     PAW_ddot     :      0.06s CPU      0.07s WALL (      36 calls)
     PAW_symme    :      0.00s CPU      0.00s WALL (      13 calls)

     PWSCF        :    38.06s CPU        36.21s WALL


   This run was terminated on:  21:39:40  26Mar2012            

=------------------------------------------------------------------------------=
   JOB DONE.
=------------------------------------------------------------------------------=
