
     Program PWSCF v.4.3.2      starts on 26Mar2012 at 21:45:15 

     This program is part of the open-source Quantum ESPRESSO suite
     for quantum simulation of materials; please cite
         "P. Giannozzi et al., J. Phys.:Condens. Matter 21 395502 (2009);
          URL http://www.quantum-espresso.org", 
     in publications or presentations arising from this work. More details at
     http://www.quantum-espresso.org/wiki/index.php/Citing_Quantum-ESPRESSO

     Current dimensions of program PWSCF are:
     Max number of different atomic species (ntypx) = 10
     Max number of k-points (npk) =  40000
     Max angular momentum in pseudopotentials (lmaxx) =  3
     Waiting for input...
     Reading input from stdin

     G-vector sticks info
     --------------------
     sticks:   dense  smooth     PW     G-vecs:    dense   smooth      PW
     Sum         877     877    265                17261    17261    2891



     bravais-lattice index     =            2
     lattice parameter (alat)  =       6.7700  a.u.
     unit-cell volume          =      77.5722 (a.u.)^3
     number of atoms/cell      =            2
     number of atomic types    =            1
     number of electrons       =         8.00
     number of Kohn-Sham states=            4
     kinetic-energy cutoff     =     140.0000  Ry
     charge density cutoff     =     560.0000  Ry
     convergence threshold     =      1.0E-06
     mixing beta               =       0.7000
     number of iterations used =            8  plain     mixing
     Exchange-correlation      =  SLA  PZ   NOGX NOGC ( 1 1 0 0 0)
     EXX-fraction              =        0.00

     celldm(1)=   6.770000  celldm(2)=   0.000000  celldm(3)=   0.000000
     celldm(4)=   0.000000  celldm(5)=   0.000000  celldm(6)=   0.000000

     crystal axes: (cart. coord. in units of alat)
               a(1) = (  -0.500000   0.000000   0.500000 )  
               a(2) = (   0.000000   0.500000   0.500000 )  
               a(3) = (  -0.500000   0.500000   0.000000 )  

     reciprocal axes: (cart. coord. in units 2 pi/alat)
               b(1) = ( -1.000000 -1.000000  1.000000 )  
               b(2) = (  1.000000  1.000000  1.000000 )  
               b(3) = ( -1.000000  1.000000 -1.000000 )  


     PseudoPot. # 1 for  C read from file:
     /home/mullspace/Documents/espresso-4.3.2/pseudo/C.pz-kjpaw.UPF
     MD5 check sum: 414e6e825ae75add557e798061b49a04
     Pseudo is Projector augmented-wave + core cor, Zval =  4.0
     Generated using "atomic" code by A. Dal Corso (espresso distribution)
     Shape of augmentation charge: BESSEL
     Using radial grid of 1073 points,  4 beta functions with: 
                l(1) =   0
                l(2) =   0
                l(3) =   1
                l(4) =   1
     Q(r) pseudized with 0 coefficients 


     atomic species   valence    mass     pseudopotential
        C              4.00    12.01070      C( 1.00)

      8 Sym.Ops. (with inversion)


   Cartesian axes

     site n.     atom                  positions (alat units)
         1           C   tau(   1) = (   0.0000000   0.0000000   0.0500000  )
         2           C   tau(   2) = (   0.2500000   0.2500000   0.2500000  )

     number of k points=    95
                       cart. coord. in units 2pi/alat
        k(    1) = (   0.0000000   0.0000000   0.0000000), wk =   0.0039063
        k(    2) = (  -0.1250000   0.1250000  -0.1250000), wk =   0.0156250
        k(    3) = (  -0.2500000   0.2500000  -0.2500000), wk =   0.0156250
        k(    4) = (  -0.3750000   0.3750000  -0.3750000), wk =   0.0156250
        k(    5) = (   0.5000000  -0.5000000   0.5000000), wk =   0.0078125
        k(    6) = (   0.0000000   0.2500000   0.0000000), wk =   0.0156250
        k(    7) = (  -0.1250000   0.3750000  -0.1250000), wk =   0.0312500
        k(    8) = (  -0.2500000   0.5000000  -0.2500000), wk =   0.0312500
        k(    9) = (   0.6250000  -0.3750000   0.6250000), wk =   0.0312500
        k(   10) = (   0.5000000  -0.2500000   0.5000000), wk =   0.0312500
        k(   11) = (   0.3750000  -0.1250000   0.3750000), wk =   0.0312500
        k(   12) = (   0.2500000   0.0000000   0.2500000), wk =   0.0312500
        k(   13) = (   0.0000000   0.5000000   0.0000000), wk =   0.0156250
        k(   14) = (  -0.1250000   0.6250000  -0.1250000), wk =   0.0312500
        k(   15) = (   0.7500000  -0.2500000   0.7500000), wk =   0.0312500
        k(   16) = (   0.6250000  -0.1250000   0.6250000), wk =   0.0312500
        k(   17) = (   0.5000000   0.0000000   0.5000000), wk =   0.0312500
        k(   18) = (   0.0000000   0.7500000   0.0000000), wk =   0.0156250
        k(   19) = (   0.8750000  -0.1250000   0.8750000), wk =   0.0312500
        k(   20) = (   0.7500000   0.0000000   0.7500000), wk =   0.0312500
        k(   21) = (   0.0000000  -1.0000000   0.0000000), wk =   0.0078125
        k(   22) = (  -0.2500000   0.5000000   0.0000000), wk =   0.0156250
        k(   23) = (   0.6250000  -0.3750000   0.8750000), wk =   0.0312500
        k(   24) = (   0.5000000  -0.2500000   0.7500000), wk =   0.0312500
        k(   25) = (   0.7500000  -0.2500000   1.0000000), wk =   0.0156250
        k(   26) = (   0.6250000  -0.1250000   0.8750000), wk =   0.0312500
        k(   27) = (   0.5000000   0.0000000   0.7500000), wk =   0.0312500
        k(   28) = (  -0.2500000  -1.0000000   0.0000000), wk =   0.0156250
        k(   29) = (  -0.5000000  -1.0000000   0.0000000), wk =   0.0156250
        k(   30) = (  -0.1250000  -0.1250000  -0.1250000), wk =   0.0156250
        k(   31) = (  -0.2500000  -0.2500000  -0.2500000), wk =   0.0156250
        k(   32) = (  -0.3750000  -0.3750000  -0.3750000), wk =   0.0156250
        k(   33) = (   0.5000000   0.5000000   0.5000000), wk =   0.0078125
        k(   34) = (   0.0000000   0.0000000   0.2500000), wk =   0.0078125
        k(   35) = (  -0.1250000  -0.3750000  -0.1250000), wk =   0.0312500
        k(   36) = (   0.1250000  -0.1250000   0.3750000), wk =   0.0156250
        k(   37) = (   0.1250000   0.1250000  -0.3750000), wk =   0.0156250
        k(   38) = (  -0.2500000  -0.5000000  -0.2500000), wk =   0.0312500
        k(   39) = (   0.2500000  -0.2500000   0.5000000), wk =   0.0156250
        k(   40) = (   0.2500000   0.2500000  -0.5000000), wk =   0.0156250
        k(   41) = (   0.6250000   0.3750000   0.6250000), wk =   0.0312500
        k(   42) = (  -0.6250000   0.6250000  -0.3750000), wk =   0.0156250
        k(   43) = (  -0.6250000  -0.6250000   0.3750000), wk =   0.0156250
        k(   44) = (   0.5000000   0.2500000   0.5000000), wk =   0.0312500
        k(   45) = (  -0.5000000   0.5000000  -0.2500000), wk =   0.0156250
        k(   46) = (  -0.5000000  -0.5000000   0.2500000), wk =   0.0156250
        k(   47) = (   0.3750000   0.1250000   0.3750000), wk =   0.0312500
        k(   48) = (  -0.3750000   0.3750000  -0.1250000), wk =   0.0156250
        k(   49) = (  -0.3750000  -0.3750000   0.1250000), wk =   0.0156250
        k(   50) = (  -0.2500000   0.2500000   0.0000000), wk =   0.0078125
        k(   51) = (  -0.2500000  -0.2500000   0.0000000), wk =   0.0078125
        k(   52) = (   0.0000000   0.0000000   0.5000000), wk =   0.0078125
        k(   53) = (  -0.1250000  -0.6250000  -0.1250000), wk =   0.0312500
        k(   54) = (   0.1250000  -0.1250000   0.6250000), wk =   0.0156250
        k(   55) = (   0.1250000   0.1250000  -0.6250000), wk =   0.0156250
        k(   56) = (   0.7500000   0.2500000   0.7500000), wk =   0.0312500
        k(   57) = (  -0.7500000   0.7500000  -0.2500000), wk =   0.0156250
        k(   58) = (  -0.7500000  -0.7500000   0.2500000), wk =   0.0156250
        k(   59) = (   0.6250000   0.1250000   0.6250000), wk =   0.0312500
        k(   60) = (  -0.6250000   0.6250000  -0.1250000), wk =   0.0156250
        k(   61) = (  -0.6250000  -0.6250000   0.1250000), wk =   0.0156250
        k(   62) = (  -0.5000000   0.5000000   0.0000000), wk =   0.0078125
        k(   63) = (  -0.5000000  -0.5000000   0.0000000), wk =   0.0078125
        k(   64) = (   0.0000000   0.0000000   0.7500000), wk =   0.0078125
        k(   65) = (   0.8750000   0.1250000   0.8750000), wk =   0.0312500
        k(   66) = (  -0.8750000   0.8750000  -0.1250000), wk =   0.0156250
        k(   67) = (  -0.8750000  -0.8750000   0.1250000), wk =   0.0156250
        k(   68) = (  -0.7500000   0.7500000   0.0000000), wk =   0.0078125
        k(   69) = (  -0.7500000  -0.7500000   0.0000000), wk =   0.0078125
        k(   70) = (   0.0000000   0.0000000  -1.0000000), wk =   0.0039063
        k(   71) = (   0.0000000  -0.5000000  -0.2500000), wk =   0.0312500
        k(   72) = (   0.2500000   0.0000000   0.5000000), wk =   0.0312500
        k(   73) = (   0.2500000   0.5000000   0.0000000), wk =   0.0156250
        k(   74) = (   0.8750000   0.3750000   0.6250000), wk =   0.0312500
        k(   75) = (  -0.8750000   0.3750000  -0.6250000), wk =   0.0312500
        k(   76) = (  -0.6250000   0.8750000  -0.3750000), wk =   0.0312500
        k(   77) = (  -0.6250000  -0.8750000   0.3750000), wk =   0.0312500
        k(   78) = (  -0.6250000  -0.3750000  -0.8750000), wk =   0.0312500
        k(   79) = (   0.7500000   0.2500000   0.5000000), wk =   0.0156250
        k(   80) = (  -0.7500000   0.2500000  -0.5000000), wk =   0.0156250
        k(   81) = (  -0.5000000  -0.7500000   0.2500000), wk =   0.0312500
        k(   82) = (   1.0000000   0.2500000   0.7500000), wk =   0.0312500
        k(   83) = (  -0.7500000   1.0000000  -0.2500000), wk =   0.0312500
        k(   84) = (  -0.7500000  -0.2500000  -1.0000000), wk =   0.0156250
        k(   85) = (   0.8750000   0.1250000   0.6250000), wk =   0.0312500
        k(   86) = (  -0.8750000   0.1250000  -0.6250000), wk =   0.0312500
        k(   87) = (  -0.6250000   0.8750000  -0.1250000), wk =   0.0312500
        k(   88) = (  -0.6250000  -0.8750000   0.1250000), wk =   0.0312500
        k(   89) = (  -0.6250000  -0.1250000  -0.8750000), wk =   0.0312500
        k(   90) = (   0.7500000   0.0000000   0.5000000), wk =   0.0312500
        k(   91) = (  -0.5000000   0.7500000   0.0000000), wk =   0.0156250
        k(   92) = (  -0.5000000  -0.7500000   0.0000000), wk =   0.0156250
        k(   93) = (   0.0000000   1.0000000  -0.2500000), wk =   0.0156250
        k(   94) = (   0.2500000   0.0000000  -1.0000000), wk =   0.0156250
        k(   95) = (   0.0000000   1.0000000  -0.5000000), wk =   0.0078125

     Dense  grid:    17261 G-vectors     FFT dimensions: (  40,  40,  40)

     Largest allocated arrays     est. size (Mb)     dimensions
        Kohn-Sham Wavefunctions         0.13 Mb     (   2200,    4)
        NL pseudopotentials             0.54 Mb     (   2200,   16)
        Each V/rho on FFT grid          0.98 Mb     (  64000)
        Each G-vector array             0.13 Mb     (  17261)
        G-vector shells                 0.00 Mb     (    218)
     Largest temporary arrays     est. size (Mb)     dimensions
        Auxiliary wavefunctions         0.54 Mb     (   2200,   16)
        Each subspace H/S matrix        0.00 Mb     (  16,  16)
        Each <psi_i|beta_j> matrix      0.00 Mb     (     16,    4)
        Arrays for rho mixing           7.81 Mb     (  64000,   8)

     Initial potential from superposition of free atoms

     starting charge    7.99993, renormalised to    8.00000
     Starting wfc are    8 atomic wfcs

     total cpu time spent up to now is        4.2 secs

     per-process dynamical memory:    12.1 Mb

     Self-consistent Calculation

     iteration #  1     ecut=   140.00 Ry     beta=0.70
     Davidson diagonalization with overlap
     ethr =  1.00E-02,  avg # of iterations =  2.7

     total cpu time spent up to now is       10.0 secs

     total energy              =     -35.55396726 Ry
     Harris-Foulkes estimate   =     -35.60235563 Ry
     estimated scf accuracy    <       0.08947563 Ry

     iteration #  2     ecut=   140.00 Ry     beta=0.70
     Davidson diagonalization with overlap
     ethr =  1.12E-03,  avg # of iterations =  2.9

     total cpu time spent up to now is       17.1 secs

     total energy              =     -35.58268668 Ry
     Harris-Foulkes estimate   =     -35.58748057 Ry
     estimated scf accuracy    <       0.00913275 Ry

     iteration #  3     ecut=   140.00 Ry     beta=0.70
     Davidson diagonalization with overlap
     ethr =  1.14E-04,  avg # of iterations =  2.7

     total cpu time spent up to now is       23.3 secs

     total energy              =     -35.58576480 Ry
     Harris-Foulkes estimate   =     -35.58629665 Ry
     estimated scf accuracy    <       0.00082968 Ry

     iteration #  4     ecut=   140.00 Ry     beta=0.70
     Davidson diagonalization with overlap
     ethr =  1.04E-05,  avg # of iterations =  3.1

     total cpu time spent up to now is       30.4 secs

     total energy              =     -35.58607250 Ry
     Harris-Foulkes estimate   =     -35.58607337 Ry
     estimated scf accuracy    <       0.00001712 Ry

     iteration #  5     ecut=   140.00 Ry     beta=0.70
     Davidson diagonalization with overlap
     ethr =  2.14E-07,  avg # of iterations =  3.2

     total cpu time spent up to now is       37.0 secs

     total energy              =     -35.58608014 Ry
     Harris-Foulkes estimate   =     -35.58608571 Ry
     estimated scf accuracy    <       0.00000780 Ry

     iteration #  6     ecut=   140.00 Ry     beta=0.70
     Davidson diagonalization with overlap
     ethr =  9.76E-08,  avg # of iterations =  2.9

     total cpu time spent up to now is       42.9 secs

     End of self-consistent calculation

          k = 0.0000 0.0000 0.0000 (  2109 PWs)   bands (ev):

    -8.3256  10.1808  13.2961  15.5359

          k =-0.1250 0.1250-0.1250 (  2139 PWs)   bands (ev):

    -7.8991   9.8288  11.0704  13.6948

          k =-0.2500 0.2500-0.2500 (  2160 PWs)   bands (ev):

    -6.6367   6.8076   9.1139  12.5301

          k =-0.3750 0.3750-0.3750 (  2162 PWs)   bands (ev):

    -4.6341   2.7301   8.5269  11.8399

          k = 0.5000-0.5000 0.5000 (  2138 PWs)   bands (ev):

    -2.8750   0.2482   8.3105  11.6125

          k = 0.0000 0.2500 0.0000 (  2149 PWs)   bands (ev):

    -7.7608   9.0979  11.4163  13.3899

          k =-0.1250 0.3750-0.1250 (  2164 PWs)   bands (ev):

    -6.7773   8.4245   8.5914  11.4156

          k =-0.2500 0.5000-0.2500 (  2162 PWs)   bands (ev):

    -5.0113   4.3423   7.8644  10.6235

          k = 0.6250-0.3750 0.6250 (  2174 PWs)   bands (ev):

    -2.8674   1.0246   7.3089  10.4726

          k = 0.5000-0.2500 0.5000 (  2155 PWs)   bands (ev):

    -3.5278   1.8997   7.0987  10.9511

          k = 0.3750-0.1250 0.3750 (  2159 PWs)   bands (ev):

    -5.6751   5.5999   7.3547  11.8713

          k = 0.2500 0.0000 0.2500 (  2153 PWs)   bands (ev):

    -7.1961   7.9928   9.7133  12.8500

          k = 0.0000 0.5000 0.0000 (  2181 PWs)   bands (ev):

    -6.0877   6.8551   8.9926  10.2674

          k =-0.1250 0.6250-0.1250 (  2161 PWs)   bands (ev):

    -4.5961   5.8958   6.5153   8.8011

          k = 0.7500-0.2500 0.7500 (  2166 PWs)   bands (ev):

    -2.5214   2.8850   5.1139   8.6193

          k = 0.6250-0.1250 0.6250 (  2172 PWs)   bands (ev):

    -1.8871   2.0340   4.3804   9.1831

          k = 0.5000 0.0000 0.5000 (  2181 PWs)   bands (ev):

    -3.9404   4.0074   5.2878  10.2579

          k = 0.0000 0.7500 0.0000 (  2156 PWs)   bands (ev):

    -3.3888   3.8599   7.3858   7.7685

          k = 0.8750-0.1250 0.8750 (  2169 PWs)   bands (ev):

    -1.5400   2.3163   5.5482   7.3358

          k = 0.7500 0.0000 0.7500 (  2171 PWs)   bands (ev):

    -0.1128   1.1548   3.7859   7.8411

          k = 0.0000-1.0000 0.0000 (  2200 PWs)   bands (ev):

     0.1172   0.1172   6.8950   6.8950

          k =-0.2500 0.5000 0.0000 (  2168 PWs)   bands (ev):

    -5.5406   7.4120   7.8172   8.1458

          k = 0.6250-0.3750 0.8750 (  2169 PWs)   bands (ev):

    -3.5995   3.7536   7.0467   7.5317

          k = 0.5000-0.2500 0.7500 (  2174 PWs)   bands (ev):

    -1.9202   1.3262   6.2594   8.0053

          k = 0.7500-0.2500 1.0000 (  2170 PWs)   bands (ev):

    -2.9268   4.5669   6.0290   6.2780

          k = 0.6250-0.1250 0.8750 (  2185 PWs)   bands (ev):

    -0.9842   2.6674   3.9911   6.5570

          k = 0.5000 0.0000 0.7500 (  2186 PWs)   bands (ev):

    -1.5181   2.5452   3.9309   7.6971

          k =-0.2500-1.0000 0.0000 (  2170 PWs)   bands (ev):

     0.2376   0.6659   5.6462   6.0105

          k =-0.5000-1.0000 0.0000 (  2180 PWs)   bands (ev):

     0.3846   1.7093   3.8946   5.3301

          k =-0.1250-0.1250-0.1250 (  2139 PWs)   bands (ev):

    -7.9025   8.8179  12.1130  14.0114

          k =-0.2500-0.2500-0.2500 (  2160 PWs)   bands (ev):

    -6.6439   5.5338  10.5276  12.6454

          k =-0.3750-0.3750-0.3750 (  2162 PWs)   bands (ev):

    -4.5931   1.7996   9.5565  11.8221

          k = 0.5000 0.5000 0.5000 (  2138 PWs)   bands (ev):

    -2.3182  -1.0932   9.2331  11.5511

          k = 0.0000 0.0000 0.2500 (  2149 PWs)   bands (ev):

    -7.7568   9.1935  11.8571  12.3253

          k =-0.1250-0.3750-0.1250 (  2164 PWs)   bands (ev):

    -6.7840   6.6360   9.9135  12.4905

          k = 0.1250-0.1250 0.3750 (  2164 PWs)   bands (ev):

    -6.7716   8.2333   8.3661  11.8699

          k = 0.1250 0.1250-0.3750 (  2164 PWs)   bands (ev):

    -6.7735   6.9379  10.3952  11.0261

          k =-0.2500-0.5000-0.2500 (  2162 PWs)   bands (ev):

    -4.9986   3.2051   8.8761  11.1163

          k = 0.2500-0.2500 0.5000 (  2162 PWs)   bands (ev):

    -4.9996   4.2065   7.8372  10.8160

          k = 0.2500 0.2500-0.5000 (  2162 PWs)   bands (ev):

    -4.9854   3.3287   9.0421  10.4145

          k = 0.6250 0.3750 0.6250 (  2174 PWs)   bands (ev):

    -2.5474  -0.1516   8.4596  10.3029

          k =-0.6250 0.6250-0.3750 (  2174 PWs)   bands (ev):

    -2.8505   0.9712   7.8004   9.8242

          k =-0.6250-0.6250 0.3750 (  2174 PWs)   bands (ev):

    -2.5425  -0.1180   8.0968  10.5426

          k = 0.5000 0.2500 0.5000 (  2155 PWs)   bands (ev):

    -3.4070   0.9366   8.4219  10.4168

          k =-0.5000 0.5000-0.2500 (  2155 PWs)   bands (ev):

    -3.5412   1.9538   8.2496   9.2844

          k =-0.5000-0.5000 0.2500 (  2155 PWs)   bands (ev):

    -3.4093   0.9006   7.7724  11.3653

          k = 0.3750 0.1250 0.3750 (  2159 PWs)   bands (ev):

    -5.6734   4.5372   8.7922  11.3995

          k =-0.3750 0.3750-0.1250 (  2159 PWs)   bands (ev):

    -5.6791   5.7472   9.0183   9.3709

          k =-0.3750-0.3750 0.1250 (  2159 PWs)   bands (ev):

    -5.6844   4.3265   8.2783  12.7539

          k =-0.2500 0.2500 0.0000 (  2153 PWs)   bands (ev):

    -7.1944   9.6271   9.7283  10.5116

          k =-0.2500-0.2500 0.0000 (  2153 PWs)   bands (ev):

    -7.2056   7.1530  10.0447  14.3218

          k = 0.0000 0.0000 0.5000 (  2181 PWs)   bands (ev):

    -6.0708   7.4148   8.5928   9.5900

          k =-0.1250-0.6250-0.1250 (  2161 PWs)   bands (ev):

    -4.5886   4.4137   7.8753   9.2143

          k = 0.1250-0.1250 0.6250 (  2161 PWs)   bands (ev):

    -4.5687   5.6461   6.8062   8.4911

          k = 0.1250 0.1250-0.6250 (  2161 PWs)   bands (ev):

    -4.5634   5.0664   7.0548   8.8378

          k = 0.7500 0.2500 0.7500 (  2166 PWs)   bands (ev):

    -2.3600   1.5185   6.6471   8.4362

          k =-0.7500 0.7500-0.2500 (  2166 PWs)   bands (ev):

    -2.4771   2.5777   6.7615   6.9192

          k =-0.7500-0.7500 0.2500 (  2166 PWs)   bands (ev):

    -2.3457   1.8018   5.6766   8.8852

          k = 0.6250 0.1250 0.6250 (  2172 PWs)   bands (ev):

    -1.6064   0.7986   5.5776   8.9538

          k =-0.6250 0.6250-0.1250 (  2172 PWs)   bands (ev):

    -1.9413   2.0914   5.7783   7.2854

          k =-0.6250-0.6250 0.1250 (  2172 PWs)   bands (ev):

    -1.5315   0.7205   4.8910   9.7193

          k =-0.5000 0.5000 0.0000 (  2181 PWs)   bands (ev):

    -3.9752   5.3641   5.3894   8.1901

          k =-0.5000-0.5000 0.0000 (  2181 PWs)   bands (ev):

    -3.9293   3.1738   5.5225  11.1960

          k = 0.0000 0.0000 0.7500 (  2156 PWs)   bands (ev):

    -3.3487   4.5464   6.0671   7.8680

          k = 0.8750 0.1250 0.8750 (  2169 PWs)   bands (ev):

    -1.4467   1.8144   6.0849   7.2880

          k =-0.8750 0.8750-0.1250 (  2169 PWs)   bands (ev):

    -1.4871   2.5419   5.9027   6.3012

          k =-0.8750-0.8750 0.1250 (  2169 PWs)   bands (ev):

    -1.4373   2.5419   4.5604   7.6985

          k =-0.7500 0.7500 0.0000 (  2171 PWs)   bands (ev):

    -0.4888   2.1001   4.2442   6.3587

          k =-0.7500-0.7500 0.0000 (  2171 PWs)   bands (ev):

     0.5785   0.6805   2.9449   8.3510

          k = 0.0000 0.0000-1.0000 (  2200 PWs)   bands (ev):

    -0.3049   0.9769   5.5840   7.2822

          k = 0.0000-0.5000-0.2500 (  2168 PWs)   bands (ev):

    -5.5397   5.8213   7.4626  10.6793

          k = 0.2500 0.0000 0.5000 (  2168 PWs)   bands (ev):

    -5.5267   6.0696   7.2288  10.3680

          k = 0.2500 0.5000 0.0000 (  2168 PWs)   bands (ev):

    -5.5454   5.0235   7.7247  11.6421

          k = 0.8750 0.3750 0.6250 (  2169 PWs)   bands (ev):

    -3.5365   2.5208   7.2004   8.9948

          k =-0.8750 0.3750-0.6250 (  2169 PWs)   bands (ev):

    -3.5839   3.6601   5.4543   9.6824

          k =-0.6250 0.8750-0.3750 (  2169 PWs)   bands (ev):

    -3.5637   3.4901   5.9402   9.1051

          k =-0.6250-0.8750 0.3750 (  2169 PWs)   bands (ev):

    -3.5206   2.6749   6.6141   9.2606

          k =-0.6250-0.3750-0.8750 (  2169 PWs)   bands (ev):

    -3.5280   2.4031   6.4274  10.0989

          k = 0.7500 0.2500 0.5000 (  2174 PWs)   bands (ev):

    -1.3409  -0.1739   7.6353   7.8275

          k =-0.7500 0.2500-0.5000 (  2174 PWs)   bands (ev):

    -1.9240   1.3747   5.2876   9.2732

          k =-0.5000-0.7500 0.2500 (  2174 PWs)   bands (ev):

    -1.3220  -0.1370   6.3070   9.1301

          k = 1.0000 0.2500 0.7500 (  2170 PWs)   bands (ev):

    -2.8919   3.5115   6.0475   7.5287

          k =-0.7500 1.0000-0.2500 (  2170 PWs)   bands (ev):

    -2.8564   4.0902   5.2501   7.3986

          k =-0.7500-0.2500-1.0000 (  2170 PWs)   bands (ev):

    -2.8567   2.9527   6.1533   8.0801

          k = 0.8750 0.1250 0.6250 (  2185 PWs)   bands (ev):

    -0.6082   1.0964   5.4051   6.5028

          k =-0.8750 0.1250-0.6250 (  2185 PWs)   bands (ev):

    -0.9293   2.4160   3.7117   7.2077

          k =-0.6250 0.8750-0.1250 (  2185 PWs)   bands (ev):

    -0.9317   2.3824   4.9654   5.6685

          k =-0.6250-0.8750 0.1250 (  2185 PWs)   bands (ev):

    -0.5978   1.5218   3.9721   7.3814

          k =-0.6250-0.1250-0.8750 (  2185 PWs)   bands (ev):

    -0.5104   1.0245   4.7383   7.1548

          k = 0.7500 0.0000 0.5000 (  2186 PWs)   bands (ev):

    -1.5362   2.3389   4.1725   7.8006

          k =-0.5000 0.7500 0.0000 (  2186 PWs)   bands (ev):

    -1.6842   3.6000   4.3243   6.1365

          k =-0.5000-0.7500 0.0000 (  2186 PWs)   bands (ev):

    -1.3541   1.6972   4.0505   8.4349

          k = 0.0000 1.0000-0.2500 (  2170 PWs)   bands (ev):

     0.4271   0.4271   5.8725   5.8725

          k = 0.2500 0.0000-1.0000 (  2170 PWs)   bands (ev):

    -0.0332   1.4053   4.5821   6.3344

          k = 0.0000 1.0000-0.5000 (  2180 PWs)   bands (ev):

     0.8280   0.8280   4.8977   4.8977

!    total energy              =     -35.58608165 Ry
     Harris-Foulkes estimate   =     -35.58608175 Ry
     estimated scf accuracy    <       0.00000017 Ry

     total all-electron energy =      -151.145078 Ry

     The total energy is the sum of the following terms:

     one-electron contribution =       8.25527335 Ry
     hartree contribution      =       1.95995425 Ry
     xc contribution           =      -8.36329453 Ry
     ewald contribution        =     -25.36588784 Ry
     one-center paw contrib.   =     -12.07212688 Ry

     convergence has been achieved in   6 iterations

     Forces acting on atoms (Ry/au):

     atom    1 type  1   force =     0.00000000    0.00000000   -0.22995479
     atom    2 type  1   force =    -0.00000000   -0.00000000    0.22995479

     Total force =     0.325205     Total SCF correction =     0.000174

     Writing output data file diamond.save

     init_run     :      4.12s CPU      4.02s WALL (       1 calls)
     electrons    :     40.41s CPU     38.70s WALL (       1 calls)
     forces       :      0.66s CPU      0.54s WALL (       1 calls)

     Called by init_run:
     wfcinit      :      3.32s CPU      3.18s WALL (       1 calls)
     potinit      :      0.05s CPU      0.06s WALL (       1 calls)

     Called by electrons:
     c_bands      :     34.27s CPU     32.60s WALL (       6 calls)
     sum_band     :      5.54s CPU      5.42s WALL (       6 calls)
     v_of_rho     :      0.10s CPU      0.11s WALL (       7 calls)
     newd         :      0.24s CPU      0.25s WALL (       7 calls)
     mix_rho      :      0.10s CPU      0.10s WALL (       6 calls)

     Called by c_bands:
     init_us_2    :      1.39s CPU      1.67s WALL (    1330 calls)
     cegterg      :     32.61s CPU     29.77s WALL (     570 calls)

     Called by *egterg:
     h_psi        :     28.93s CPU     27.92s WALL (    2321 calls)
     s_psi        :      1.83s CPU      1.10s WALL (    2321 calls)
     g_psi        :      0.18s CPU      0.16s WALL (    1656 calls)
     cdiaghg      :      0.44s CPU      0.45s WALL (    2226 calls)

     Called by h_psi:
     add_vuspsi   :      1.93s CPU      1.17s WALL (    2321 calls)

     General routines
     calbec       :      3.03s CPU      1.73s WALL (    2986 calls)
     fft          :      0.11s CPU      0.11s WALL (      45 calls)
     fftw         :     24.62s CPU     25.39s WALL (   17518 calls)
     davcio       :      0.19s CPU      1.24s WALL (    1900 calls)


     PAW routines
     PAW_pot      :      0.20s CPU      0.20s WALL (       7 calls)
     PAW_ddot     :      0.08s CPU      0.07s WALL (      36 calls)
     PAW_symme    :      0.00s CPU      0.00s WALL (      13 calls)

     PWSCF        :    45.70s CPU        43.94s WALL


   This run was terminated on:  21:45:59  26Mar2012            

=------------------------------------------------------------------------------=
   JOB DONE.
=------------------------------------------------------------------------------=
