
     Program PWSCF v.4.3.2      starts on 26Mar2012 at 21:51:54 

     This program is part of the open-source Quantum ESPRESSO suite
     for quantum simulation of materials; please cite
         "P. Giannozzi et al., J. Phys.:Condens. Matter 21 395502 (2009);
          URL http://www.quantum-espresso.org", 
     in publications or presentations arising from this work. More details at
     http://www.quantum-espresso.org/wiki/index.php/Citing_Quantum-ESPRESSO

     Current dimensions of program PWSCF are:
     Max number of different atomic species (ntypx) = 10
     Max number of k-points (npk) =  40000
     Max angular momentum in pseudopotentials (lmaxx) =  3
     Waiting for input...
     Reading input from stdin

     G-vector sticks info
     --------------------
     sticks:   dense  smooth     PW     G-vecs:    dense   smooth      PW
     Sum         913     913    271                18149    18149    2975



     bravais-lattice index     =            2
     lattice parameter (alat)  =       6.8600  a.u.
     unit-cell volume          =      80.7072 (a.u.)^3
     number of atoms/cell      =            2
     number of atomic types    =            1
     number of electrons       =         8.00
     number of Kohn-Sham states=            4
     kinetic-energy cutoff     =     140.0000  Ry
     charge density cutoff     =     560.0000  Ry
     convergence threshold     =      1.0E-06
     mixing beta               =       0.7000
     number of iterations used =            8  plain     mixing
     Exchange-correlation      =  SLA  PZ   NOGX NOGC ( 1 1 0 0 0)
     EXX-fraction              =        0.00

     celldm(1)=   6.860000  celldm(2)=   0.000000  celldm(3)=   0.000000
     celldm(4)=   0.000000  celldm(5)=   0.000000  celldm(6)=   0.000000

     crystal axes: (cart. coord. in units of alat)
               a(1) = (  -0.500000   0.000000   0.500000 )  
               a(2) = (   0.000000   0.500000   0.500000 )  
               a(3) = (  -0.500000   0.500000   0.000000 )  

     reciprocal axes: (cart. coord. in units 2 pi/alat)
               b(1) = ( -1.000000 -1.000000  1.000000 )  
               b(2) = (  1.000000  1.000000  1.000000 )  
               b(3) = ( -1.000000  1.000000 -1.000000 )  


     PseudoPot. # 1 for  C read from file:
     /home/mullspace/Documents/espresso-4.3.2/pseudo/C.pz-kjpaw.UPF
     MD5 check sum: 414e6e825ae75add557e798061b49a04
     Pseudo is Projector augmented-wave + core cor, Zval =  4.0
     Generated using "atomic" code by A. Dal Corso (espresso distribution)
     Shape of augmentation charge: BESSEL
     Using radial grid of 1073 points,  4 beta functions with: 
                l(1) =   0
                l(2) =   0
                l(3) =   1
                l(4) =   1
     Q(r) pseudized with 0 coefficients 


     atomic species   valence    mass     pseudopotential
        C              4.00    12.01070      C( 1.00)

      8 Sym.Ops. (with inversion)


   Cartesian axes

     site n.     atom                  positions (alat units)
         1           C   tau(   1) = (   0.0000000   0.0000000   0.0500000  )
         2           C   tau(   2) = (   0.2500000   0.2500000   0.2500000  )

     number of k points=    95
                       cart. coord. in units 2pi/alat
        k(    1) = (   0.0000000   0.0000000   0.0000000), wk =   0.0039063
        k(    2) = (  -0.1250000   0.1250000  -0.1250000), wk =   0.0156250
        k(    3) = (  -0.2500000   0.2500000  -0.2500000), wk =   0.0156250
        k(    4) = (  -0.3750000   0.3750000  -0.3750000), wk =   0.0156250
        k(    5) = (   0.5000000  -0.5000000   0.5000000), wk =   0.0078125
        k(    6) = (   0.0000000   0.2500000   0.0000000), wk =   0.0156250
        k(    7) = (  -0.1250000   0.3750000  -0.1250000), wk =   0.0312500
        k(    8) = (  -0.2500000   0.5000000  -0.2500000), wk =   0.0312500
        k(    9) = (   0.6250000  -0.3750000   0.6250000), wk =   0.0312500
        k(   10) = (   0.5000000  -0.2500000   0.5000000), wk =   0.0312500
        k(   11) = (   0.3750000  -0.1250000   0.3750000), wk =   0.0312500
        k(   12) = (   0.2500000   0.0000000   0.2500000), wk =   0.0312500
        k(   13) = (   0.0000000   0.5000000   0.0000000), wk =   0.0156250
        k(   14) = (  -0.1250000   0.6250000  -0.1250000), wk =   0.0312500
        k(   15) = (   0.7500000  -0.2500000   0.7500000), wk =   0.0312500
        k(   16) = (   0.6250000  -0.1250000   0.6250000), wk =   0.0312500
        k(   17) = (   0.5000000   0.0000000   0.5000000), wk =   0.0312500
        k(   18) = (   0.0000000   0.7500000   0.0000000), wk =   0.0156250
        k(   19) = (   0.8750000  -0.1250000   0.8750000), wk =   0.0312500
        k(   20) = (   0.7500000   0.0000000   0.7500000), wk =   0.0312500
        k(   21) = (   0.0000000  -1.0000000   0.0000000), wk =   0.0078125
        k(   22) = (  -0.2500000   0.5000000   0.0000000), wk =   0.0156250
        k(   23) = (   0.6250000  -0.3750000   0.8750000), wk =   0.0312500
        k(   24) = (   0.5000000  -0.2500000   0.7500000), wk =   0.0312500
        k(   25) = (   0.7500000  -0.2500000   1.0000000), wk =   0.0156250
        k(   26) = (   0.6250000  -0.1250000   0.8750000), wk =   0.0312500
        k(   27) = (   0.5000000   0.0000000   0.7500000), wk =   0.0312500
        k(   28) = (  -0.2500000  -1.0000000   0.0000000), wk =   0.0156250
        k(   29) = (  -0.5000000  -1.0000000   0.0000000), wk =   0.0156250
        k(   30) = (  -0.1250000  -0.1250000  -0.1250000), wk =   0.0156250
        k(   31) = (  -0.2500000  -0.2500000  -0.2500000), wk =   0.0156250
        k(   32) = (  -0.3750000  -0.3750000  -0.3750000), wk =   0.0156250
        k(   33) = (   0.5000000   0.5000000   0.5000000), wk =   0.0078125
        k(   34) = (   0.0000000   0.0000000   0.2500000), wk =   0.0078125
        k(   35) = (  -0.1250000  -0.3750000  -0.1250000), wk =   0.0312500
        k(   36) = (   0.1250000  -0.1250000   0.3750000), wk =   0.0156250
        k(   37) = (   0.1250000   0.1250000  -0.3750000), wk =   0.0156250
        k(   38) = (  -0.2500000  -0.5000000  -0.2500000), wk =   0.0312500
        k(   39) = (   0.2500000  -0.2500000   0.5000000), wk =   0.0156250
        k(   40) = (   0.2500000   0.2500000  -0.5000000), wk =   0.0156250
        k(   41) = (   0.6250000   0.3750000   0.6250000), wk =   0.0312500
        k(   42) = (  -0.6250000   0.6250000  -0.3750000), wk =   0.0156250
        k(   43) = (  -0.6250000  -0.6250000   0.3750000), wk =   0.0156250
        k(   44) = (   0.5000000   0.2500000   0.5000000), wk =   0.0312500
        k(   45) = (  -0.5000000   0.5000000  -0.2500000), wk =   0.0156250
        k(   46) = (  -0.5000000  -0.5000000   0.2500000), wk =   0.0156250
        k(   47) = (   0.3750000   0.1250000   0.3750000), wk =   0.0312500
        k(   48) = (  -0.3750000   0.3750000  -0.1250000), wk =   0.0156250
        k(   49) = (  -0.3750000  -0.3750000   0.1250000), wk =   0.0156250
        k(   50) = (  -0.2500000   0.2500000   0.0000000), wk =   0.0078125
        k(   51) = (  -0.2500000  -0.2500000   0.0000000), wk =   0.0078125
        k(   52) = (   0.0000000   0.0000000   0.5000000), wk =   0.0078125
        k(   53) = (  -0.1250000  -0.6250000  -0.1250000), wk =   0.0312500
        k(   54) = (   0.1250000  -0.1250000   0.6250000), wk =   0.0156250
        k(   55) = (   0.1250000   0.1250000  -0.6250000), wk =   0.0156250
        k(   56) = (   0.7500000   0.2500000   0.7500000), wk =   0.0312500
        k(   57) = (  -0.7500000   0.7500000  -0.2500000), wk =   0.0156250
        k(   58) = (  -0.7500000  -0.7500000   0.2500000), wk =   0.0156250
        k(   59) = (   0.6250000   0.1250000   0.6250000), wk =   0.0312500
        k(   60) = (  -0.6250000   0.6250000  -0.1250000), wk =   0.0156250
        k(   61) = (  -0.6250000  -0.6250000   0.1250000), wk =   0.0156250
        k(   62) = (  -0.5000000   0.5000000   0.0000000), wk =   0.0078125
        k(   63) = (  -0.5000000  -0.5000000   0.0000000), wk =   0.0078125
        k(   64) = (   0.0000000   0.0000000   0.7500000), wk =   0.0078125
        k(   65) = (   0.8750000   0.1250000   0.8750000), wk =   0.0312500
        k(   66) = (  -0.8750000   0.8750000  -0.1250000), wk =   0.0156250
        k(   67) = (  -0.8750000  -0.8750000   0.1250000), wk =   0.0156250
        k(   68) = (  -0.7500000   0.7500000   0.0000000), wk =   0.0078125
        k(   69) = (  -0.7500000  -0.7500000   0.0000000), wk =   0.0078125
        k(   70) = (   0.0000000   0.0000000  -1.0000000), wk =   0.0039063
        k(   71) = (   0.0000000  -0.5000000  -0.2500000), wk =   0.0312500
        k(   72) = (   0.2500000   0.0000000   0.5000000), wk =   0.0312500
        k(   73) = (   0.2500000   0.5000000   0.0000000), wk =   0.0156250
        k(   74) = (   0.8750000   0.3750000   0.6250000), wk =   0.0312500
        k(   75) = (  -0.8750000   0.3750000  -0.6250000), wk =   0.0312500
        k(   76) = (  -0.6250000   0.8750000  -0.3750000), wk =   0.0312500
        k(   77) = (  -0.6250000  -0.8750000   0.3750000), wk =   0.0312500
        k(   78) = (  -0.6250000  -0.3750000  -0.8750000), wk =   0.0312500
        k(   79) = (   0.7500000   0.2500000   0.5000000), wk =   0.0156250
        k(   80) = (  -0.7500000   0.2500000  -0.5000000), wk =   0.0156250
        k(   81) = (  -0.5000000  -0.7500000   0.2500000), wk =   0.0312500
        k(   82) = (   1.0000000   0.2500000   0.7500000), wk =   0.0312500
        k(   83) = (  -0.7500000   1.0000000  -0.2500000), wk =   0.0312500
        k(   84) = (  -0.7500000  -0.2500000  -1.0000000), wk =   0.0156250
        k(   85) = (   0.8750000   0.1250000   0.6250000), wk =   0.0312500
        k(   86) = (  -0.8750000   0.1250000  -0.6250000), wk =   0.0312500
        k(   87) = (  -0.6250000   0.8750000  -0.1250000), wk =   0.0312500
        k(   88) = (  -0.6250000  -0.8750000   0.1250000), wk =   0.0312500
        k(   89) = (  -0.6250000  -0.1250000  -0.8750000), wk =   0.0312500
        k(   90) = (   0.7500000   0.0000000   0.5000000), wk =   0.0312500
        k(   91) = (  -0.5000000   0.7500000   0.0000000), wk =   0.0156250
        k(   92) = (  -0.5000000  -0.7500000   0.0000000), wk =   0.0156250
        k(   93) = (   0.0000000   1.0000000  -0.2500000), wk =   0.0156250
        k(   94) = (   0.2500000   0.0000000  -1.0000000), wk =   0.0156250
        k(   95) = (   0.0000000   1.0000000  -0.5000000), wk =   0.0078125

     Dense  grid:    18149 G-vectors     FFT dimensions: (  40,  40,  40)

     Largest allocated arrays     est. size (Mb)     dimensions
        Kohn-Sham Wavefunctions         0.14 Mb     (   2276,    4)
        NL pseudopotentials             0.56 Mb     (   2276,   16)
        Each V/rho on FFT grid          0.98 Mb     (  64000)
        Each G-vector array             0.14 Mb     (  18149)
        G-vector shells                 0.00 Mb     (    225)
     Largest temporary arrays     est. size (Mb)     dimensions
        Auxiliary wavefunctions         0.56 Mb     (   2276,   16)
        Each subspace H/S matrix        0.00 Mb     (  16,  16)
        Each <psi_i|beta_j> matrix      0.00 Mb     (     16,    4)
        Arrays for rho mixing           7.81 Mb     (  64000,   8)

     Initial potential from superposition of free atoms

     starting charge    7.99993, renormalised to    8.00000
     Starting wfc are    8 atomic wfcs

     total cpu time spent up to now is        4.4 secs

     per-process dynamical memory:    12.5 Mb

     Self-consistent Calculation

     iteration #  1     ecut=   140.00 Ry     beta=0.70
     Davidson diagonalization with overlap
     ethr =  1.00E-02,  avg # of iterations =  2.7

     Threshold (ethr) on eigenvalues was too large:
     Diagonalizing with lowered threshold

     Davidson diagonalization with overlap
     ethr =  9.63E-04,  avg # of iterations =  2.9

     total cpu time spent up to now is       17.9 secs

     total energy              =     -35.57152340 Ry
     Harris-Foulkes estimate   =     -35.63365810 Ry
     estimated scf accuracy    <       0.11547379 Ry

     iteration #  2     ecut=   140.00 Ry     beta=0.70
     Davidson diagonalization with overlap
     ethr =  1.44E-03,  avg # of iterations =  1.0

     total cpu time spent up to now is       22.8 secs

     total energy              =     -35.57435874 Ry
     Harris-Foulkes estimate   =     -35.57699241 Ry
     estimated scf accuracy    <       0.00544573 Ry

     iteration #  3     ecut=   140.00 Ry     beta=0.70
     Davidson diagonalization with overlap
     ethr =  6.81E-05,  avg # of iterations =  3.2

     total cpu time spent up to now is       31.4 secs

     total energy              =     -35.58241100 Ry
     Harris-Foulkes estimate   =     -35.58415641 Ry
     estimated scf accuracy    <       0.00280474 Ry

     iteration #  4     ecut=   140.00 Ry     beta=0.70
     Davidson diagonalization with overlap
     ethr =  3.51E-05,  avg # of iterations =  3.1

     total cpu time spent up to now is       38.4 secs

     total energy              =     -35.58281112 Ry
     Harris-Foulkes estimate   =     -35.58308634 Ry
     estimated scf accuracy    <       0.00046252 Ry

     iteration #  5     ecut=   140.00 Ry     beta=0.70
     Davidson diagonalization with overlap
     ethr =  5.78E-06,  avg # of iterations =  2.7

     total cpu time spent up to now is       44.8 secs

     End of self-consistent calculation

          k = 0.0000 0.0000 0.0000 (  2229 PWs)   bands (ev):

    -8.5057   9.5502  12.5952  14.7817

          k =-0.1250 0.1250-0.1250 (  2235 PWs)   bands (ev):

    -8.0914   9.2133  10.4416  13.0044

          k =-0.2500 0.2500-0.2500 (  2238 PWs)   bands (ev):

    -6.8671   6.3008   8.5266  11.8784

          k =-0.3750 0.3750-0.3750 (  2247 PWs)   bands (ev):

    -4.9366   2.3513   7.9610  11.2094

          k = 0.5000-0.5000 0.5000 (  2276 PWs)   bands (ev):

    -3.2888   0.0001   7.7520  10.9885

          k = 0.0000 0.2500 0.0000 (  2233 PWs)   bands (ev):

    -7.9561   8.4891  10.7925  12.6949

          k =-0.1250 0.3750-0.1250 (  2243 PWs)   bands (ev):

    -7.0021   7.8633   8.0181  10.7853

          k =-0.2500 0.5000-0.2500 (  2255 PWs)   bands (ev):

    -5.2951   3.9123   7.3005  10.0270

          k = 0.6250-0.3750 0.6250 (  2262 PWs)   bands (ev):

    -3.2601   0.7332   6.7628   9.8857

          k = 0.5000-0.2500 0.5000 (  2253 PWs)   bands (ev):

    -3.8752   1.5554   6.5629  10.3477

          k = 0.3750-0.1250 0.3750 (  2251 PWs)   bands (ev):

    -5.9337   5.1201   6.8176  11.2341

          k = 0.2500 0.0000 0.2500 (  2239 PWs)   bands (ev):

    -7.4073   7.4243   9.1243  12.1806

          k = 0.0000 0.5000 0.0000 (  2269 PWs)   bands (ev):

    -6.3291   6.2796   8.4559   9.6646

          k =-0.1250 0.6250-0.1250 (  2257 PWs)   bands (ev):

    -4.8859   5.3293   6.0518   8.2659

          k = 0.7500-0.2500 0.7500 (  2265 PWs)   bands (ev):

    -2.8977   2.4970   4.6243   8.0985

          k = 0.6250-0.1250 0.6250 (  2262 PWs)   bands (ev):

    -2.3010   1.6868   3.9212   8.6428

          k = 0.5000 0.0000 0.5000 (  2269 PWs)   bands (ev):

    -4.2506   3.5192   4.8492   9.6770

          k = 0.0000 0.7500 0.0000 (  2265 PWs)   bands (ev):

    -3.7077   3.3282   6.9054   7.2763

          k = 0.8750-0.1250 0.8750 (  2264 PWs)   bands (ev):

    -1.9281   1.8351   5.1309   6.8603

          k = 0.7500 0.0000 0.7500 (  2257 PWs)   bands (ev):

    -0.5838   0.7194   3.4543   7.3478

          k = 0.0000-1.0000 0.0000 (  2272 PWs)   bands (ev):

    -0.3074  -0.3074   6.4346   6.4346

          k =-0.2500 0.5000 0.0000 (  2267 PWs)   bands (ev):

    -5.8052   6.9106   7.2598   7.5857

          k = 0.6250-0.3750 0.8750 (  2264 PWs)   bands (ev):

    -3.9368   3.3464   6.4987   7.0345

          k = 0.5000-0.2500 0.7500 (  2270 PWs)   bands (ev):

    -2.3577   1.0321   5.7504   7.4891

          k = 0.7500-0.2500 1.0000 (  2270 PWs)   bands (ev):

    -3.2772   4.0313   5.5857   5.8323

          k = 0.6250-0.1250 0.8750 (  2253 PWs)   bands (ev):

    -1.4311   2.2234   3.6161   6.1032

          k = 0.5000 0.0000 0.7500 (  2268 PWs)   bands (ev):

    -1.9225   2.0808   3.5536   7.2103

          k =-0.2500-1.0000 0.0000 (  2244 PWs)   bands (ev):

    -0.2270   0.2417   5.2206   5.5973

          k =-0.5000-1.0000 0.0000 (  2244 PWs)   bands (ev):

    -0.1235   1.2487   3.5418   4.9596

          k =-0.1250-0.1250-0.1250 (  2235 PWs)   bands (ev):

    -8.0934   8.2210  11.4542  13.3152

          k =-0.2500-0.2500-0.2500 (  2238 PWs)   bands (ev):

    -6.8675   5.0200   9.9197  11.9929

          k =-0.3750-0.3750-0.3750 (  2247 PWs)   bands (ev):

    -4.8734   1.3857   8.9767  11.1939

          k = 0.5000 0.5000 0.5000 (  2276 PWs)   bands (ev):

    -2.7062  -1.3834   8.6623  10.9305

          k = 0.0000 0.0000 0.2500 (  2233 PWs)   bands (ev):

    -7.9524   8.6081  11.1592  11.6903

          k =-0.1250-0.3750-0.1250 (  2243 PWs)   bands (ev):

    -7.0042   6.0788   9.3428  11.8255

          k = 0.1250-0.1250 0.3750 (  2243 PWs)   bands (ev):

    -6.9956   7.6698   7.8141  11.2106

          k = 0.1250 0.1250-0.3750 (  2243 PWs)   bands (ev):

    -6.9957   6.4069   9.7412  10.4341

          k =-0.2500-0.5000-0.2500 (  2255 PWs)   bands (ev):

    -5.2661   2.7397   8.3291  10.4977

          k = 0.2500-0.2500 0.5000 (  2255 PWs)   bands (ev):

    -5.2819   3.7675   7.3032  10.1918

          k = 0.2500 0.2500-0.5000 (  2255 PWs)   bands (ev):

    -5.2572   2.8826   8.4430   9.8406

          k = 0.6250 0.3750 0.6250 (  2262 PWs)   bands (ev):

    -2.8984  -0.5057   7.9135   9.7163

          k =-0.6250 0.6250-0.3750 (  2262 PWs)   bands (ev):

    -3.2439   0.6768   7.2650   9.2360

          k =-0.6250-0.6250 0.3750 (  2262 PWs)   bands (ev):

    -2.8992  -0.4611   7.5394   9.9616

          k = 0.5000 0.2500 0.5000 (  2253 PWs)   bands (ev):

    -3.7273   0.5500   7.8714   9.8296

          k =-0.5000 0.5000-0.2500 (  2253 PWs)   bands (ev):

    -3.8929   1.6137   7.6948   8.7167

          k =-0.5000-0.5000 0.2500 (  2253 PWs)   bands (ev):

    -3.7213   0.5009   7.2404  10.7543

          k = 0.3750 0.1250 0.3750 (  2251 PWs)   bands (ev):

    -5.9257   4.0526   8.2314  10.7784

          k =-0.3750 0.3750-0.1250 (  2251 PWs)   bands (ev):

    -5.9416   5.2779   8.4323   8.8015

          k =-0.3750-0.3750 0.1250 (  2251 PWs)   bands (ev):

    -5.9312   3.8195   7.7534  12.0941

          k =-0.2500 0.2500 0.0000 (  2239 PWs)   bands (ev):

    -7.4082   9.0534   9.1138   9.9040

          k =-0.2500-0.2500 0.0000 (  2239 PWs)   bands (ev):

    -7.4135   6.5739   9.4777  13.6066

          k = 0.0000 0.0000 0.5000 (  2269 PWs)   bands (ev):

    -6.3137   6.9015   7.9471   9.0469

          k =-0.1250-0.6250-0.1250 (  2257 PWs)   bands (ev):

    -4.8688   3.8802   7.3767   8.6656

          k = 0.1250-0.1250 0.6250 (  2257 PWs)   bands (ev):

    -4.8582   5.1152   6.3149   7.9592

          k = 0.1250 0.1250-0.6250 (  2257 PWs)   bands (ev):

    -4.8497   4.5744   6.4972   8.3187

          k = 0.7500 0.2500 0.7500 (  2265 PWs)   bands (ev):

    -2.7046   1.0719   6.1725   7.9205

          k =-0.7500 0.7500-0.2500 (  2265 PWs)   bands (ev):

    -2.8561   2.1808   6.2699   6.4309

          k =-0.7500-0.7500 0.2500 (  2265 PWs)   bands (ev):

    -2.7021   1.3892   5.1801   8.3634

          k = 0.6250 0.1250 0.6250 (  2262 PWs)   bands (ev):

    -1.9990   0.4112   5.1262   8.4194

          k =-0.6250 0.6250-0.1250 (  2262 PWs)   bands (ev):

    -2.3687   1.7573   5.3185   6.7716

          k =-0.6250-0.6250 0.1250 (  2262 PWs)   bands (ev):

    -1.8998   0.3052   4.4461   9.1685

          k =-0.5000 0.5000 0.0000 (  2269 PWs)   bands (ev):

    -4.2993   4.9116   4.9298   7.6389

          k =-0.5000-0.5000 0.0000 (  2269 PWs)   bands (ev):

    -4.2210   2.6529   5.0995  10.5934

          k = 0.0000 0.0000 0.7500 (  2265 PWs)   bands (ev):

    -3.6736   4.0127   5.6038   7.3809

          k = 0.8750 0.1250 0.8750 (  2264 PWs)   bands (ev):

    -1.8172   1.3177   5.6633   6.8150

          k =-0.8750 0.8750-0.1250 (  2264 PWs)   bands (ev):

    -1.8870   2.0798   5.4446   5.8792

          k =-0.8750-0.8750 0.1250 (  2264 PWs)   bands (ev):

    -1.8287   2.0627   4.1530   7.2164

          k =-0.7500 0.7500 0.0000 (  2257 PWs)   bands (ev):

    -0.9876   1.7045   3.9105   5.8824

          k =-0.7500-0.7500 0.0000 (  2257 PWs)   bands (ev):

     0.0929   0.2450   2.6273   7.8471

          k = 0.0000 0.0000-1.0000 (  2272 PWs)   bands (ev):

    -0.7785   0.6094   5.1379   6.8138

          k = 0.0000-0.5000-0.2500 (  2267 PWs)   bands (ev):

    -5.7979   5.2814   6.9580  10.0807

          k = 0.2500 0.0000 0.5000 (  2267 PWs)   bands (ev):

    -5.7861   5.5517   6.7059   9.7693

          k = 0.2500 0.5000 0.0000 (  2267 PWs)   bands (ev):

    -5.7963   4.4727   7.2345  11.0180

          k = 0.8750 0.3750 0.6250 (  2264 PWs)   bands (ev):

    -3.8518   2.0686   6.7051   8.4482

          k =-0.8750 0.3750-0.6250 (  2264 PWs)   bands (ev):

    -3.9131   3.2388   4.9522   9.1337

          k =-0.6250 0.8750-0.3750 (  2264 PWs)   bands (ev):

    -3.8944   3.0636   5.4536   8.5506

          k =-0.6250-0.8750 0.3750 (  2264 PWs)   bands (ev):

    -3.8396   2.2416   6.0957   8.7220

          k =-0.6250-0.3750-0.8750 (  2264 PWs)   bands (ev):

    -3.8326   1.9299   5.9498   9.5375

          k = 0.7500 0.2500 0.5000 (  2270 PWs)   bands (ev):

    -1.7569  -0.5125   7.1389   7.3041

          k =-0.7500 0.2500-0.5000 (  2270 PWs)   bands (ev):

    -2.3540   1.0795   4.7765   8.7458

          k =-0.5000-0.7500 0.2500 (  2270 PWs)   bands (ev):

    -1.7333  -0.4751   5.8027   8.6059

          k = 1.0000 0.2500 0.7500 (  2270 PWs)   bands (ev):

    -3.2299   2.9877   5.6024   7.0583

          k =-0.7500 1.0000-0.2500 (  2270 PWs)   bands (ev):

    -3.2005   3.5679   4.8108   6.9336

          k =-0.7500-0.2500-1.0000 (  2270 PWs)   bands (ev):

    -3.1808   2.4172   5.7123   7.6011

          k = 0.8750 0.1250 0.6250 (  2253 PWs)   bands (ev):

    -1.0241   0.6443   5.0001   6.0526

          k =-0.8750 0.1250-0.6250 (  2253 PWs)   bands (ev):

    -1.3626   1.9318   3.3624   6.7538

          k =-0.6250 0.8750-0.1250 (  2253 PWs)   bands (ev):

    -1.3854   1.9718   4.5366   5.2528

          k =-0.6250-0.8750 0.1250 (  2253 PWs)   bands (ev):

    -1.0252   1.0844   3.5675   6.9236

          k =-0.6250-0.1250-0.8750 (  2253 PWs)   bands (ev):

    -0.9103   0.5539   4.3329   6.7061

          k = 0.7500 0.0000 0.5000 (  2268 PWs)   bands (ev):

    -1.9343   1.8629   3.7996   7.3145

          k =-0.5000 0.7500 0.0000 (  2268 PWs)   bands (ev):

    -2.1082   3.1495   3.9548   5.6633

          k =-0.5000-0.7500 0.0000 (  2268 PWs)   bands (ev):

    -1.7183   1.1876   3.6769   7.9389

          k = 0.0000 1.0000-0.2500 (  2244 PWs)   bands (ev):

    -0.0185  -0.0185   5.4547   5.4547

          k = 0.2500 0.0000-1.0000 (  2244 PWs)   bands (ev):

    -0.5225   1.0090   4.1706   5.9120

          k = 0.0000 1.0000-0.5000 (  2244 PWs)   bands (ev):

     0.3484   0.3484   4.5308   4.5308

!    total energy              =     -35.58289736 Ry
     Harris-Foulkes estimate   =     -35.58289772 Ry
     estimated scf accuracy    <       0.00000034 Ry

     total all-electron energy =      -151.141894 Ry

     The total energy is the sum of the following terms:

     one-electron contribution =       7.81225785 Ry
     hartree contribution      =       2.00435350 Ry
     xc contribution           =      -8.29705599 Ry
     ewald contribution        =     -25.03309922 Ry
     one-center paw contrib.   =     -12.06935349 Ry

     convergence has been achieved in   5 iterations

     Forces acting on atoms (Ry/au):

     atom    1 type  1   force =     0.00000000    0.00000000   -0.21453929
     atom    2 type  1   force =     0.00000000    0.00000000    0.21453929

     Total force =     0.303404     Total SCF correction =     0.000118

     Writing output data file diamond.save

     init_run     :      4.23s CPU      4.17s WALL (       1 calls)
     electrons    :     41.49s CPU     40.38s WALL (       1 calls)
     forces       :      0.72s CPU      0.55s WALL (       1 calls)

     Called by init_run:
     wfcinit      :      3.41s CPU      3.32s WALL (       1 calls)
     potinit      :      0.06s CPU      0.06s WALL (       1 calls)

     Called by electrons:
     c_bands      :     35.11s CPU     33.99s WALL (       6 calls)
     sum_band     :      5.91s CPU      5.83s WALL (       6 calls)
     v_of_rho     :      0.08s CPU      0.09s WALL (       6 calls)
     newd         :      0.21s CPU      0.22s WALL (       6 calls)
     mix_rho      :      0.08s CPU      0.07s WALL (       6 calls)

     Called by c_bands:
     init_us_2    :      1.58s CPU      1.73s WALL (    1330 calls)
     cegterg      :     33.37s CPU     30.37s WALL (     570 calls)

     Called by *egterg:
     h_psi        :     29.64s CPU     28.63s WALL (    2146 calls)
     s_psi        :      2.04s CPU      1.16s WALL (    2146 calls)
     g_psi        :      0.13s CPU      0.17s WALL (    1481 calls)
     cdiaghg      :      0.45s CPU      0.40s WALL (    1956 calls)

     Called by h_psi:
     add_vuspsi   :      2.02s CPU      1.19s WALL (    2146 calls)

     General routines
     calbec       :      2.93s CPU      1.79s WALL (    2811 calls)
     fft          :      0.09s CPU      0.10s WALL (      42 calls)
     fftw         :     25.81s CPU     26.26s WALL (   17284 calls)
     davcio       :      0.20s CPU      1.97s WALL (    1900 calls)


     PAW routines
     PAW_pot      :      0.17s CPU      0.17s WALL (       6 calls)
     PAW_ddot     :      0.06s CPU      0.04s WALL (      22 calls)
     PAW_symme    :      0.00s CPU      0.00s WALL (      12 calls)

     PWSCF        :    46.87s CPU        45.75s WALL


   This run was terminated on:  21:52:40  26Mar2012            

=------------------------------------------------------------------------------=
   JOB DONE.
=------------------------------------------------------------------------------=
