
     Program PWSCF v.4.3.2      starts on 26Mar2012 at 21:37:51 

     This program is part of the open-source Quantum ESPRESSO suite
     for quantum simulation of materials; please cite
         "P. Giannozzi et al., J. Phys.:Condens. Matter 21 395502 (2009);
          URL http://www.quantum-espresso.org", 
     in publications or presentations arising from this work. More details at
     http://www.quantum-espresso.org/wiki/index.php/Citing_Quantum-ESPRESSO

     Current dimensions of program PWSCF are:
     Max number of different atomic species (ntypx) = 10
     Max number of k-points (npk) =  40000
     Max angular momentum in pseudopotentials (lmaxx) =  3
     Waiting for input...
     Reading input from stdin
     warning: symmetry operation #  5 not allowed.   fractional translation:
       0.2000000  0.2000000  0.3000000  in crystal coordinates
     warning: symmetry operation #  6 not allowed.   fractional translation:
       0.2000000  0.2000000  0.3000000  in crystal coordinates
     warning: symmetry operation # 25 not allowed.   fractional translation:
       0.2000000  0.2000000  0.3000000  in crystal coordinates
     warning: symmetry operation # 26 not allowed.   fractional translation:
       0.2000000  0.2000000  0.3000000  in crystal coordinates

     G-vector sticks info
     --------------------
     sticks:   dense  smooth     PW     G-vecs:    dense   smooth      PW
     Sum         847     847    253                16457    16457    2733



     bravais-lattice index     =            2
     lattice parameter (alat)  =       6.6500  a.u.
     unit-cell volume          =      73.5199 (a.u.)^3
     number of atoms/cell      =            2
     number of atomic types    =            1
     number of electrons       =         8.00
     number of Kohn-Sham states=            4
     kinetic-energy cutoff     =     140.0000  Ry
     charge density cutoff     =     560.0000  Ry
     convergence threshold     =      1.0E-06
     mixing beta               =       0.7000
     number of iterations used =            8  plain     mixing
     Exchange-correlation      =  SLA  PZ   NOGX NOGC ( 1 1 0 0 0)
     EXX-fraction              =        0.00

     celldm(1)=   6.650000  celldm(2)=   0.000000  celldm(3)=   0.000000
     celldm(4)=   0.000000  celldm(5)=   0.000000  celldm(6)=   0.000000

     crystal axes: (cart. coord. in units of alat)
               a(1) = (  -0.500000   0.000000   0.500000 )  
               a(2) = (   0.000000   0.500000   0.500000 )  
               a(3) = (  -0.500000   0.500000   0.000000 )  

     reciprocal axes: (cart. coord. in units 2 pi/alat)
               b(1) = ( -1.000000 -1.000000  1.000000 )  
               b(2) = (  1.000000  1.000000  1.000000 )  
               b(3) = ( -1.000000  1.000000 -1.000000 )  


     PseudoPot. # 1 for  C read from file:
     /home/mullspace/Documents/espresso-4.3.2/pseudo/C.pz-kjpaw.UPF
     MD5 check sum: 414e6e825ae75add557e798061b49a04
     Pseudo is Projector augmented-wave + core cor, Zval =  4.0
     Generated using "atomic" code by A. Dal Corso (espresso distribution)
     Shape of augmentation charge: BESSEL
     Using radial grid of 1073 points,  4 beta functions with: 
                l(1) =   0
                l(2) =   0
                l(3) =   1
                l(4) =   1
     Q(r) pseudized with 0 coefficients 


     atomic species   valence    mass     pseudopotential
        C              4.00    12.01070      C( 1.00)

      4 Sym.Ops. (no inversion)


   Cartesian axes

     site n.     atom                  positions (alat units)
         1           C   tau(   1) = (   0.0000000   0.0000000   0.0500000  )
         2           C   tau(   2) = (   0.2500000   0.2500000   0.2500000  )

     number of k points=    95
                       cart. coord. in units 2pi/alat
        k(    1) = (   0.0000000   0.0000000   0.0000000), wk =   0.0039063
        k(    2) = (  -0.1250000   0.1250000  -0.1250000), wk =   0.0156250
        k(    3) = (  -0.2500000   0.2500000  -0.2500000), wk =   0.0156250
        k(    4) = (  -0.3750000   0.3750000  -0.3750000), wk =   0.0156250
        k(    5) = (   0.5000000  -0.5000000   0.5000000), wk =   0.0078125
        k(    6) = (   0.0000000   0.2500000   0.0000000), wk =   0.0156250
        k(    7) = (  -0.1250000   0.3750000  -0.1250000), wk =   0.0312500
        k(    8) = (  -0.2500000   0.5000000  -0.2500000), wk =   0.0312500
        k(    9) = (   0.6250000  -0.3750000   0.6250000), wk =   0.0312500
        k(   10) = (   0.5000000  -0.2500000   0.5000000), wk =   0.0312500
        k(   11) = (   0.3750000  -0.1250000   0.3750000), wk =   0.0312500
        k(   12) = (   0.2500000   0.0000000   0.2500000), wk =   0.0312500
        k(   13) = (   0.0000000   0.5000000   0.0000000), wk =   0.0156250
        k(   14) = (  -0.1250000   0.6250000  -0.1250000), wk =   0.0312500
        k(   15) = (   0.7500000  -0.2500000   0.7500000), wk =   0.0312500
        k(   16) = (   0.6250000  -0.1250000   0.6250000), wk =   0.0312500
        k(   17) = (   0.5000000   0.0000000   0.5000000), wk =   0.0312500
        k(   18) = (   0.0000000   0.7500000   0.0000000), wk =   0.0156250
        k(   19) = (   0.8750000  -0.1250000   0.8750000), wk =   0.0312500
        k(   20) = (   0.7500000   0.0000000   0.7500000), wk =   0.0312500
        k(   21) = (   0.0000000  -1.0000000   0.0000000), wk =   0.0078125
        k(   22) = (  -0.2500000   0.5000000   0.0000000), wk =   0.0156250
        k(   23) = (   0.6250000  -0.3750000   0.8750000), wk =   0.0312500
        k(   24) = (   0.5000000  -0.2500000   0.7500000), wk =   0.0312500
        k(   25) = (   0.7500000  -0.2500000   1.0000000), wk =   0.0156250
        k(   26) = (   0.6250000  -0.1250000   0.8750000), wk =   0.0312500
        k(   27) = (   0.5000000   0.0000000   0.7500000), wk =   0.0312500
        k(   28) = (  -0.2500000  -1.0000000   0.0000000), wk =   0.0156250
        k(   29) = (  -0.5000000  -1.0000000   0.0000000), wk =   0.0156250
        k(   30) = (   0.1250000   0.1250000  -0.1250000), wk =   0.0156250
        k(   31) = (   0.2500000   0.2500000  -0.2500000), wk =   0.0156250
        k(   32) = (   0.3750000   0.3750000  -0.3750000), wk =   0.0156250
        k(   33) = (  -0.5000000  -0.5000000   0.5000000), wk =   0.0078125
        k(   34) = (   0.0000000   0.0000000   0.2500000), wk =   0.0078125
        k(   35) = (   0.3750000   0.1250000  -0.1250000), wk =   0.0312500
        k(   36) = (   0.1250000  -0.1250000   0.3750000), wk =   0.0156250
        k(   37) = (   0.1250000   0.1250000  -0.3750000), wk =   0.0156250
        k(   38) = (   0.5000000   0.2500000  -0.2500000), wk =   0.0312500
        k(   39) = (   0.2500000  -0.2500000   0.5000000), wk =   0.0156250
        k(   40) = (   0.2500000   0.2500000  -0.5000000), wk =   0.0156250
        k(   41) = (  -0.3750000  -0.6250000   0.6250000), wk =   0.0312500
        k(   42) = (  -0.6250000   0.6250000  -0.3750000), wk =   0.0156250
        k(   43) = (  -0.6250000  -0.6250000   0.3750000), wk =   0.0156250
        k(   44) = (  -0.2500000  -0.5000000   0.5000000), wk =   0.0312500
        k(   45) = (  -0.5000000   0.5000000  -0.2500000), wk =   0.0156250
        k(   46) = (  -0.5000000  -0.5000000   0.2500000), wk =   0.0156250
        k(   47) = (  -0.1250000  -0.3750000   0.3750000), wk =   0.0312500
        k(   48) = (  -0.3750000   0.3750000  -0.1250000), wk =   0.0156250
        k(   49) = (  -0.3750000  -0.3750000   0.1250000), wk =   0.0156250
        k(   50) = (  -0.2500000   0.2500000   0.0000000), wk =   0.0078125
        k(   51) = (  -0.2500000  -0.2500000   0.0000000), wk =   0.0078125
        k(   52) = (   0.0000000   0.0000000   0.5000000), wk =   0.0078125
        k(   53) = (   0.6250000   0.1250000  -0.1250000), wk =   0.0312500
        k(   54) = (   0.1250000  -0.1250000   0.6250000), wk =   0.0156250
        k(   55) = (   0.1250000   0.1250000  -0.6250000), wk =   0.0156250
        k(   56) = (  -0.2500000  -0.7500000   0.7500000), wk =   0.0312500
        k(   57) = (  -0.7500000   0.7500000  -0.2500000), wk =   0.0156250
        k(   58) = (  -0.7500000  -0.7500000   0.2500000), wk =   0.0156250
        k(   59) = (  -0.1250000  -0.6250000   0.6250000), wk =   0.0312500
        k(   60) = (  -0.6250000   0.6250000  -0.1250000), wk =   0.0156250
        k(   61) = (  -0.6250000  -0.6250000   0.1250000), wk =   0.0156250
        k(   62) = (  -0.5000000   0.5000000   0.0000000), wk =   0.0078125
        k(   63) = (  -0.5000000  -0.5000000   0.0000000), wk =   0.0078125
        k(   64) = (   0.0000000   0.0000000   0.7500000), wk =   0.0078125
        k(   65) = (  -0.1250000  -0.8750000   0.8750000), wk =   0.0312500
        k(   66) = (  -0.8750000   0.8750000  -0.1250000), wk =   0.0156250
        k(   67) = (  -0.8750000  -0.8750000   0.1250000), wk =   0.0156250
        k(   68) = (  -0.7500000   0.7500000   0.0000000), wk =   0.0078125
        k(   69) = (  -0.7500000  -0.7500000   0.0000000), wk =   0.0078125
        k(   70) = (   0.0000000   0.0000000  -1.0000000), wk =   0.0039063
        k(   71) = (   0.5000000   0.2500000   0.0000000), wk =   0.0156250
        k(   72) = (   0.0000000  -0.5000000  -0.2500000), wk =   0.0312500
        k(   73) = (   0.2500000   0.0000000   0.5000000), wk =   0.0312500
        k(   74) = (  -0.3750000  -0.6250000   0.8750000), wk =   0.0312500
        k(   75) = (   0.8750000   0.3750000   0.6250000), wk =   0.0312500
        k(   76) = (  -0.8750000   0.3750000  -0.6250000), wk =   0.0312500
        k(   77) = (  -0.6250000   0.8750000  -0.3750000), wk =   0.0312500
        k(   78) = (  -0.6250000  -0.8750000   0.3750000), wk =   0.0312500
        k(   79) = (  -0.2500000  -0.5000000   0.7500000), wk =   0.0312500
        k(   80) = (   0.7500000   0.2500000   0.5000000), wk =   0.0156250
        k(   81) = (  -0.7500000   0.2500000  -0.5000000), wk =   0.0156250
        k(   82) = (  -0.2500000  -0.7500000   1.0000000), wk =   0.0156250
        k(   83) = (   1.0000000   0.2500000   0.7500000), wk =   0.0312500
        k(   84) = (  -0.7500000   1.0000000  -0.2500000), wk =   0.0312500
        k(   85) = (  -0.1250000  -0.6250000   0.8750000), wk =   0.0312500
        k(   86) = (   0.8750000   0.1250000   0.6250000), wk =   0.0312500
        k(   87) = (  -0.8750000   0.1250000  -0.6250000), wk =   0.0312500
        k(   88) = (  -0.6250000   0.8750000  -0.1250000), wk =   0.0312500
        k(   89) = (  -0.6250000  -0.8750000   0.1250000), wk =   0.0312500
        k(   90) = (   0.7500000   0.0000000   0.5000000), wk =   0.0312500
        k(   91) = (  -0.5000000   0.7500000   0.0000000), wk =   0.0156250
        k(   92) = (  -0.5000000  -0.7500000   0.0000000), wk =   0.0156250
        k(   93) = (   0.0000000   1.0000000  -0.2500000), wk =   0.0156250
        k(   94) = (   0.2500000   0.0000000  -1.0000000), wk =   0.0156250
        k(   95) = (   0.0000000   1.0000000  -0.5000000), wk =   0.0078125

     Dense  grid:    16457 G-vectors     FFT dimensions: (  36,  36,  36)

     Largest allocated arrays     est. size (Mb)     dimensions
        Kohn-Sham Wavefunctions         0.13 Mb     (   2085,    4)
        NL pseudopotentials             0.51 Mb     (   2085,   16)
        Each V/rho on FFT grid          0.71 Mb     (  46656)
        Each G-vector array             0.13 Mb     (  16457)
        G-vector shells                 0.00 Mb     (    211)
     Largest temporary arrays     est. size (Mb)     dimensions
        Auxiliary wavefunctions         0.51 Mb     (   2085,   16)
        Each subspace H/S matrix        0.00 Mb     (  16,  16)
        Each <psi_i|beta_j> matrix      0.00 Mb     (     16,    4)
        Arrays for rho mixing           5.70 Mb     (  46656,   8)

     Initial potential from superposition of free atoms

     starting charge    7.99993, renormalised to    8.00000
     Starting wfc are    8 atomic wfcs

     total cpu time spent up to now is        3.5 secs

     per-process dynamical memory:    10.6 Mb

     Self-consistent Calculation

     iteration #  1     ecut=   140.00 Ry     beta=0.70
     Davidson diagonalization with overlap
     ethr =  1.00E-02,  avg # of iterations =  2.9

     total cpu time spent up to now is        8.2 secs

     total energy              =     -35.55404738 Ry
     Harris-Foulkes estimate   =     -35.61530851 Ry
     estimated scf accuracy    <       0.11024425 Ry

     iteration #  2     ecut=   140.00 Ry     beta=0.70
     Davidson diagonalization with overlap
     ethr =  1.38E-03,  avg # of iterations =  2.8

     total cpu time spent up to now is       13.7 secs

     total energy              =     -35.57997687 Ry
     Harris-Foulkes estimate   =     -35.58440523 Ry
     estimated scf accuracy    <       0.00849853 Ry

     iteration #  3     ecut=   140.00 Ry     beta=0.70
     Davidson diagonalization with overlap
     ethr =  1.06E-04,  avg # of iterations =  2.8

     total cpu time spent up to now is       18.8 secs

     total energy              =     -35.58433963 Ry
     Harris-Foulkes estimate   =     -35.58486130 Ry
     estimated scf accuracy    <       0.00080952 Ry

     iteration #  4     ecut=   140.00 Ry     beta=0.70
     Davidson diagonalization with overlap
     ethr =  1.01E-05,  avg # of iterations =  3.0

     total cpu time spent up to now is       24.6 secs

     total energy              =     -35.58461909 Ry
     Harris-Foulkes estimate   =     -35.58463068 Ry
     estimated scf accuracy    <       0.00003475 Ry

     iteration #  5     ecut=   140.00 Ry     beta=0.70
     Davidson diagonalization with overlap
     ethr =  4.34E-07,  avg # of iterations =  2.4

     total cpu time spent up to now is       29.1 secs

     total energy              =     -35.58462462 Ry
     Harris-Foulkes estimate   =     -35.58462829 Ry
     estimated scf accuracy    <       0.00000545 Ry

     iteration #  6     ecut=   140.00 Ry     beta=0.70
     Davidson diagonalization with overlap
     ethr =  6.82E-08,  avg # of iterations =  3.3

     total cpu time spent up to now is       35.6 secs

     End of self-consistent calculation

          k = 0.0000 0.0000 0.0000 (  2085 PWs)   bands (ev):

    -8.0644  11.0777  14.2901  16.6032

          k =-0.1250 0.1250-0.1250 (  2055 PWs)   bands (ev):

    -7.6211  10.7042  11.9602  14.6721

          k =-0.2500 0.2500-0.2500 (  2060 PWs)   bands (ev):

    -6.3064   7.5263   9.9493  13.4536

          k =-0.3750 0.3750-0.3750 (  2045 PWs)   bands (ev):

    -4.2049   3.2716   9.3323  12.7339

          k = 0.5000-0.5000 0.5000 (  2060 PWs)   bands (ev):

    -2.2824   0.5993   9.1053  12.4975

          k = 0.0000 0.2500 0.0000 (  2037 PWs)   bands (ev):

    -7.4785   9.9616  12.3002  14.3723

          k =-0.1250 0.3750-0.1250 (  2046 PWs)   bands (ev):

    -6.4546   9.2045   9.4199  12.3086

          k =-0.2500 0.5000-0.2500 (  2057 PWs)   bands (ev):

    -4.6075   4.9538   8.6658  11.4690

          k = 0.6250-0.3750 0.6250 (  2053 PWs)   bands (ev):

    -2.3094   1.4405   8.0853  11.3044

          k = 0.5000-0.2500 0.5000 (  2052 PWs)   bands (ev):

    -3.0359   2.3922   7.8605  11.8065

          k = 0.3750-0.1250 0.3750 (  2054 PWs)   bands (ev):

    -5.3061   6.2794   8.1191  12.7749

          k = 0.2500 0.0000 0.2500 (  2047 PWs)   bands (ev):

    -6.8922   8.7984  10.5475  13.7990

          k = 0.0000 0.5000 0.0000 (  2045 PWs)   bands (ev):

    -5.7417   7.6679   9.7539  11.1229

          k =-0.1250 0.6250-0.1250 (  2053 PWs)   bands (ev):

    -4.1834   6.6961   7.1754   9.5609

          k = 0.7500-0.2500 0.7500 (  2067 PWs)   bands (ev):

    -1.9882   3.4311   5.8160   9.3579

          k = 0.6250-0.1250 0.6250 (  2062 PWs)   bands (ev):

    -1.2996   2.5214   5.0396   9.9494

          k = 0.5000 0.0000 0.5000 (  2065 PWs)   bands (ev):

    -3.4998   4.6968   5.9149  11.0821

          k = 0.0000 0.7500 0.0000 (  2068 PWs)   bands (ev):

    -2.9353   4.6119   8.0679   8.4668

          k = 0.8750-0.1250 0.8750 (  2064 PWs)   bands (ev):

    -0.9902   2.9972   6.1429   8.0107

          k = 0.7500 0.0000 0.7500 (  2065 PWs)   bands (ev):

     0.5581   1.7708   4.2564   8.5414

          k = 0.0000-1.0000 0.0000 (  2044 PWs)   bands (ev):

     0.7183   0.7183   7.5489   7.5489

          k =-0.2500 0.5000 0.0000 (  2054 PWs)   bands (ev):

    -5.1632   8.1260   8.5834   8.9627

          k = 0.6250-0.3750 0.8750 (  2060 PWs)   bands (ev):

    -3.1217   4.3323   7.8264   8.2378

          k = 0.5000-0.2500 0.7500 (  2036 PWs)   bands (ev):

    -1.2955   1.7400   6.9835   8.7386

          k = 0.7500-0.2500 1.0000 (  2067 PWs)   bands (ev):

    -2.4303   5.3248   6.6614   6.9109

          k = 0.6250-0.1250 0.8750 (  2065 PWs)   bands (ev):

    -0.3498   3.2853   4.5352   7.2026

          k = 0.5000 0.0000 0.7500 (  2064 PWs)   bands (ev):

    -0.9463   3.2010   4.4728   8.3886

          k =-0.2500-1.0000 0.0000 (  2064 PWs)   bands (ev):

     0.8961   1.2664   6.2518   6.5979

          k =-0.5000-1.0000 0.0000 (  2048 PWs)   bands (ev):

     1.1082   2.3641   4.3952   5.8541

          k = 0.1250 0.1250-0.1250 (  2055 PWs)   bands (ev):

    -7.6263   9.6648  13.0466  14.9957

          k = 0.2500 0.2500-0.2500 (  2060 PWs)   bands (ev):

    -6.3226   6.2612  11.3904  13.5689

          k = 0.3750 0.3750-0.3750 (  2045 PWs)   bands (ev):

    -4.1936   2.3872  10.3803  12.7119

          k =-0.5000-0.5000 0.5000 (  2060 PWs)   bands (ev):

    -1.7627  -0.6842  10.0445  12.4305

          k = 0.0000 0.0000 0.2500 (  2037 PWs)   bands (ev):

    -7.4742  10.0256  12.8448  13.2230

          k = 0.3750 0.1250-0.1250 (  2046 PWs)   bands (ev):

    -6.4674   7.4243  10.7229  13.4325

          k = 0.1250-0.1250 0.3750 (  2046 PWs)   bands (ev):

    -6.4500   9.0293   9.1511  12.8051

          k = 0.1250 0.1250-0.3750 (  2046 PWs)   bands (ev):

    -6.4542   7.6903  11.3227  11.8638

          k = 0.5000 0.2500-0.2500 (  2057 PWs)   bands (ev):

    -4.6165   3.8636   9.6533  11.9931

          k = 0.2500-0.2500 0.5000 (  2057 PWs)   bands (ev):

    -4.5981   4.8306   8.5966  11.7007

          k = 0.2500 0.2500-0.5000 (  2057 PWs)   bands (ev):

    -4.5977   3.9610   9.8933  11.2271

          k =-0.3750-0.6250 0.6250 (  2053 PWs)   bands (ev):

    -2.0504   0.3526   9.2359  11.1341

          k =-0.6250 0.6250-0.3750 (  2053 PWs)   bands (ev):

    -2.2920   1.3919   8.5621  10.6577

          k =-0.6250-0.6250 0.3750 (  2053 PWs)   bands (ev):

    -2.0374   0.3706   8.8897  11.3653

          k =-0.2500-0.5000 0.5000 (  2052 PWs)   bands (ev):

    -2.9524   1.4861   9.2041  11.2495

          k =-0.5000 0.5000-0.2500 (  2052 PWs)   bands (ev):

    -3.0434   2.4408   9.0390  10.0885

          k =-0.5000-0.5000 0.2500 (  2052 PWs)   bands (ev):

    -2.9659   1.4675   8.5295  12.2306

          k =-0.1250-0.3750 0.3750 (  2054 PWs)   bands (ev):

    -5.3127   5.2233   9.5877  12.2805

          k =-0.3750 0.3750-0.1250 (  2054 PWs)   bands (ev):

    -5.3049   6.4142   9.8523  10.1765

          k =-0.3750-0.3750 0.1250 (  2054 PWs)   bands (ev):

    -5.3310   5.0431   9.0251  13.6884

          k =-0.2500 0.2500 0.0000 (  2047 PWs)   bands (ev):

    -6.8870  10.4416  10.6028  11.3685

          k =-0.2500-0.2500 0.0000 (  2047 PWs)   bands (ev):

    -6.9059   7.9730  10.8486  15.3344

          k = 0.0000 0.0000 0.5000 (  2045 PWs)   bands (ev):

    -5.7231   8.1447   9.5066  10.3590

          k = 0.6250 0.1250-0.1250 (  2053 PWs)   bands (ev):

    -4.1888   5.1676   8.5836   9.9928

          k = 0.1250-0.1250 0.6250 (  2053 PWs)   bands (ev):

    -4.1569   6.3961   7.5051   9.2477

          k = 0.1250 0.1250-0.6250 (  2053 PWs)   bands (ev):

    -4.1557   5.7592   7.8520   9.5731

          k =-0.2500-0.7500 0.7500 (  2067 PWs)   bands (ev):

    -1.8713   2.1501   7.3234   9.1678

          k =-0.7500 0.7500-0.2500 (  2067 PWs)   bands (ev):

    -1.9418   3.1419   7.4611   7.6138

          k =-0.7500-0.7500 0.2500 (  2067 PWs)   bands (ev):

    -1.8413   2.3844   6.3872   9.6244

          k =-0.1250-0.6250 0.6250 (  2062 PWs)   bands (ev):

    -1.0508   1.3469   6.2220   9.7122

          k =-0.6250 0.6250-0.1250 (  2062 PWs)   bands (ev):

    -1.3350   2.5648   6.4331   8.0163

          k =-0.6250-0.6250 0.1250 (  2062 PWs)   bands (ev):

    -1.0098   1.3060   5.5297  10.4994

          k =-0.5000 0.5000 0.0000 (  2065 PWs)   bands (ev):

    -3.5161   5.9859   6.0639   8.9745

          k =-0.5000-0.5000 0.0000 (  2065 PWs)   bands (ev):

    -3.5135   3.9111   6.1252  12.0493

          k = 0.0000 0.0000 0.7500 (  2068 PWs)   bands (ev):

    -2.8881   5.3031   6.7265   8.5585

          k =-0.1250-0.8750 0.8750 (  2064 PWs)   bands (ev):

    -0.9214   2.5188   6.6828   7.9596

          k =-0.8750 0.8750-0.1250 (  2064 PWs)   bands (ev):

    -0.9236   3.2012   6.5548   6.8992

          k =-0.8750-0.8750 0.1250 (  2064 PWs)   bands (ev):

    -0.8855   3.2228   5.1417   8.3817

          k =-0.7500 0.7500 0.0000 (  2065 PWs)   bands (ev):

     0.2226   2.6596   4.7166   7.0367

          k =-0.7500-0.7500 0.0000 (  2065 PWs)   bands (ev):

     1.2664   1.3008   3.3960   9.0652

          k = 0.0000 0.0000-1.0000 (  2044 PWs)   bands (ev):

     0.3665   1.4971   6.2192   7.9463

          k = 0.5000 0.2500 0.0000 (  2054 PWs)   bands (ev):

    -5.1861   5.8025   8.4207  12.5257

          k = 0.0000-0.5000-0.2500 (  2054 PWs)   bands (ev):

    -5.1708   6.5840   8.1800  11.5287

          k = 0.2500 0.0000 0.5000 (  2054 PWs)   bands (ev):

    -5.1564   6.8005   7.9727  11.2181

          k =-0.3750-0.6250 0.8750 (  2060 PWs)   bands (ev):

    -3.0944   3.0710   7.1096  10.8940

          k = 0.8750 0.3750 0.6250 (  2060 PWs)   bands (ev):

    -3.0885   3.1607   7.9043   9.7715

          k =-0.8750 0.3750-0.6250 (  2060 PWs)   bands (ev):

    -3.1170   4.2540   6.1740  10.4603

          k =-0.6250 0.8750-0.3750 (  2060 PWs)   bands (ev):

    -3.0954   4.0949   6.6339   9.8924

          k =-0.6250-0.8750 0.3750 (  2060 PWs)   bands (ev):

    -3.0680   3.2880   7.3530  10.0245

          k =-0.2500-0.5000 0.7500 (  2036 PWs)   bands (ev):

    -0.7350   0.3372   7.0274   9.8721

          k = 0.7500 0.2500 0.5000 (  2036 PWs)   bands (ev):

    -0.7469   0.3016   8.3405   8.5722

          k =-0.7500 0.2500-0.5000 (  2036 PWs)   bands (ev):

    -1.3096   1.7886   6.0175  10.0202

          k =-0.2500-0.7500 1.0000 (  2067 PWs)   bands (ev):

    -2.3959   3.7119   6.7805   8.7578

          k = 1.0000 0.2500 0.7500 (  2067 PWs)   bands (ev):

    -2.4122   4.2530   6.6816   8.1958

          k =-0.7500 1.0000-0.2500 (  2067 PWs)   bands (ev):

    -2.3693   4.8302   5.8782   8.0573

          k =-0.1250-0.6250 0.8750 (  2065 PWs)   bands (ev):

     0.0552   1.6910   5.3189   7.7906

          k = 0.8750 0.1250 0.6250 (  2065 PWs)   bands (ev):

    -0.0197   1.7369   5.9819   7.1434

          k =-0.8750 0.1250-0.6250 (  2065 PWs)   bands (ev):

    -0.3139   3.0950   4.2167   7.8512

          k =-0.6250 0.8750-0.1250 (  2065 PWs)   bands (ev):

    -0.2891   2.9615   5.5786   6.2609

          k =-0.6250-0.8750 0.1250 (  2065 PWs)   bands (ev):

     0.0064   2.1361   4.5574   8.0298

          k = 0.7500 0.0000 0.5000 (  2064 PWs)   bands (ev):

    -0.9724   3.0120   4.7063   8.4907

          k =-0.5000 0.7500 0.0000 (  2064 PWs)   bands (ev):

    -1.0842   4.2345   4.8536   6.8123

          k =-0.5000-0.7500 0.0000 (  2064 PWs)   bands (ev):

    -0.8375   2.4192   4.5842   9.1376

          k = 0.0000 1.0000-0.2500 (  2064 PWs)   bands (ev):

     1.0584   1.0584   6.4666   6.4666

          k = 0.2500 0.0000-1.0000 (  2064 PWs)   bands (ev):

     0.6612   1.9648   5.1700   6.9334

          k = 0.0000 1.0000-0.5000 (  2048 PWs)   bands (ev):

     1.5101   1.5101   5.4176   5.4176

!    total energy              =     -35.58462735 Ry
     Harris-Foulkes estimate   =     -35.58462756 Ry
     estimated scf accuracy    <       0.00000068 Ry

     total all-electron energy =      -151.143624 Ry

     The total energy is the sum of the following terms:

     one-electron contribution =       8.86680376 Ry
     hartree contribution      =       1.90524666 Ry
     xc contribution           =      -8.45674700 Ry
     ewald contribution        =     -25.82361815 Ry
     one-center paw contrib.   =     -12.07631262 Ry

     convergence has been achieved in   6 iterations

     Forces acting on atoms (Ry/au):

     atom    1 type  1   force =     0.00000000    0.00000000   -0.25251271
     atom    2 type  1   force =     0.00000000    0.00000000    0.25251271

     Total force =     0.357107     Total SCF correction =     0.000231

     Writing output data file diamond.save

     init_run     :      3.30s CPU      3.26s WALL (       1 calls)
     electrons    :     33.24s CPU     32.09s WALL (       1 calls)
     forces       :      0.63s CPU      0.50s WALL (       1 calls)

     Called by init_run:
     wfcinit      :      2.52s CPU      2.43s WALL (       1 calls)
     potinit      :      0.04s CPU      0.05s WALL (       1 calls)

     Called by electrons:
     c_bands      :     28.43s CPU     27.28s WALL (       6 calls)
     sum_band     :      4.28s CPU      4.18s WALL (       6 calls)
     v_of_rho     :      0.07s CPU      0.08s WALL (       7 calls)
     newd         :      0.22s CPU      0.22s WALL (       7 calls)
     mix_rho      :      0.10s CPU      0.10s WALL (       6 calls)

     Called by c_bands:
     init_us_2    :      1.48s CPU      1.60s WALL (    1330 calls)
     cegterg      :     26.73s CPU     24.18s WALL (     570 calls)

     Called by *egterg:
     h_psi        :     22.42s CPU     21.52s WALL (    2306 calls)
     s_psi        :      1.82s CPU      1.12s WALL (    2306 calls)
     g_psi        :      0.17s CPU      0.17s WALL (    1641 calls)
     cdiaghg      :      0.37s CPU      0.47s WALL (    2211 calls)

     Called by h_psi:
     add_vuspsi   :      1.92s CPU      1.17s WALL (    2306 calls)

     General routines
     calbec       :      2.86s CPU      1.72s WALL (    2971 calls)
     fft          :      0.06s CPU      0.07s WALL (      45 calls)
     fftw         :     18.09s CPU     18.63s WALL (   17996 calls)
     davcio       :      0.16s CPU      1.50s WALL (    1900 calls)


     PAW routines
     PAW_pot      :      0.20s CPU      0.20s WALL (       7 calls)
     PAW_ddot     :      0.08s CPU      0.08s WALL (      36 calls)
     PAW_symme    :      0.00s CPU      0.00s WALL (      13 calls)

     PWSCF        :    37.64s CPU        36.47s WALL


   This run was terminated on:  21:38:28  26Mar2012            

=------------------------------------------------------------------------------=
   JOB DONE.
=------------------------------------------------------------------------------=
