
     Program PWSCF v.4.3.2      starts on 26Mar2012 at 21:50:24 

     This program is part of the open-source Quantum ESPRESSO suite
     for quantum simulation of materials; please cite
         "P. Giannozzi et al., J. Phys.:Condens. Matter 21 395502 (2009);
          URL http://www.quantum-espresso.org", 
     in publications or presentations arising from this work. More details at
     http://www.quantum-espresso.org/wiki/index.php/Citing_Quantum-ESPRESSO

     Current dimensions of program PWSCF are:
     Max number of different atomic species (ntypx) = 10
     Max number of k-points (npk) =  40000
     Max angular momentum in pseudopotentials (lmaxx) =  3
     Waiting for input...
     Reading input from stdin

     G-vector sticks info
     --------------------
     sticks:   dense  smooth     PW     G-vecs:    dense   smooth      PW
     Sum         913     913    271                17933    17933    2975



     bravais-lattice index     =            2
     lattice parameter (alat)  =       6.8400  a.u.
     unit-cell volume          =      80.0034 (a.u.)^3
     number of atoms/cell      =            2
     number of atomic types    =            1
     number of electrons       =         8.00
     number of Kohn-Sham states=            4
     kinetic-energy cutoff     =     140.0000  Ry
     charge density cutoff     =     560.0000  Ry
     convergence threshold     =      1.0E-06
     mixing beta               =       0.7000
     number of iterations used =            8  plain     mixing
     Exchange-correlation      =  SLA  PZ   NOGX NOGC ( 1 1 0 0 0)
     EXX-fraction              =        0.00

     celldm(1)=   6.840000  celldm(2)=   0.000000  celldm(3)=   0.000000
     celldm(4)=   0.000000  celldm(5)=   0.000000  celldm(6)=   0.000000

     crystal axes: (cart. coord. in units of alat)
               a(1) = (  -0.500000   0.000000   0.500000 )  
               a(2) = (   0.000000   0.500000   0.500000 )  
               a(3) = (  -0.500000   0.500000   0.000000 )  

     reciprocal axes: (cart. coord. in units 2 pi/alat)
               b(1) = ( -1.000000 -1.000000  1.000000 )  
               b(2) = (  1.000000  1.000000  1.000000 )  
               b(3) = ( -1.000000  1.000000 -1.000000 )  


     PseudoPot. # 1 for  C read from file:
     /home/mullspace/Documents/espresso-4.3.2/pseudo/C.pz-kjpaw.UPF
     MD5 check sum: 414e6e825ae75add557e798061b49a04
     Pseudo is Projector augmented-wave + core cor, Zval =  4.0
     Generated using "atomic" code by A. Dal Corso (espresso distribution)
     Shape of augmentation charge: BESSEL
     Using radial grid of 1073 points,  4 beta functions with: 
                l(1) =   0
                l(2) =   0
                l(3) =   1
                l(4) =   1
     Q(r) pseudized with 0 coefficients 


     atomic species   valence    mass     pseudopotential
        C              4.00    12.01070      C( 1.00)

      8 Sym.Ops. (with inversion)


   Cartesian axes

     site n.     atom                  positions (alat units)
         1           C   tau(   1) = (   0.0000000   0.0000000   0.0500000  )
         2           C   tau(   2) = (   0.2500000   0.2500000   0.2500000  )

     number of k points=    95
                       cart. coord. in units 2pi/alat
        k(    1) = (   0.0000000   0.0000000   0.0000000), wk =   0.0039063
        k(    2) = (  -0.1250000   0.1250000  -0.1250000), wk =   0.0156250
        k(    3) = (  -0.2500000   0.2500000  -0.2500000), wk =   0.0156250
        k(    4) = (  -0.3750000   0.3750000  -0.3750000), wk =   0.0156250
        k(    5) = (   0.5000000  -0.5000000   0.5000000), wk =   0.0078125
        k(    6) = (   0.0000000   0.2500000   0.0000000), wk =   0.0156250
        k(    7) = (  -0.1250000   0.3750000  -0.1250000), wk =   0.0312500
        k(    8) = (  -0.2500000   0.5000000  -0.2500000), wk =   0.0312500
        k(    9) = (   0.6250000  -0.3750000   0.6250000), wk =   0.0312500
        k(   10) = (   0.5000000  -0.2500000   0.5000000), wk =   0.0312500
        k(   11) = (   0.3750000  -0.1250000   0.3750000), wk =   0.0312500
        k(   12) = (   0.2500000   0.0000000   0.2500000), wk =   0.0312500
        k(   13) = (   0.0000000   0.5000000   0.0000000), wk =   0.0156250
        k(   14) = (  -0.1250000   0.6250000  -0.1250000), wk =   0.0312500
        k(   15) = (   0.7500000  -0.2500000   0.7500000), wk =   0.0312500
        k(   16) = (   0.6250000  -0.1250000   0.6250000), wk =   0.0312500
        k(   17) = (   0.5000000   0.0000000   0.5000000), wk =   0.0312500
        k(   18) = (   0.0000000   0.7500000   0.0000000), wk =   0.0156250
        k(   19) = (   0.8750000  -0.1250000   0.8750000), wk =   0.0312500
        k(   20) = (   0.7500000   0.0000000   0.7500000), wk =   0.0312500
        k(   21) = (   0.0000000  -1.0000000   0.0000000), wk =   0.0078125
        k(   22) = (  -0.2500000   0.5000000   0.0000000), wk =   0.0156250
        k(   23) = (   0.6250000  -0.3750000   0.8750000), wk =   0.0312500
        k(   24) = (   0.5000000  -0.2500000   0.7500000), wk =   0.0312500
        k(   25) = (   0.7500000  -0.2500000   1.0000000), wk =   0.0156250
        k(   26) = (   0.6250000  -0.1250000   0.8750000), wk =   0.0312500
        k(   27) = (   0.5000000   0.0000000   0.7500000), wk =   0.0312500
        k(   28) = (  -0.2500000  -1.0000000   0.0000000), wk =   0.0156250
        k(   29) = (  -0.5000000  -1.0000000   0.0000000), wk =   0.0156250
        k(   30) = (  -0.1250000  -0.1250000  -0.1250000), wk =   0.0156250
        k(   31) = (  -0.2500000  -0.2500000  -0.2500000), wk =   0.0156250
        k(   32) = (  -0.3750000  -0.3750000  -0.3750000), wk =   0.0156250
        k(   33) = (   0.5000000   0.5000000   0.5000000), wk =   0.0078125
        k(   34) = (   0.0000000   0.0000000   0.2500000), wk =   0.0078125
        k(   35) = (  -0.1250000  -0.3750000  -0.1250000), wk =   0.0312500
        k(   36) = (   0.1250000  -0.1250000   0.3750000), wk =   0.0156250
        k(   37) = (   0.1250000   0.1250000  -0.3750000), wk =   0.0156250
        k(   38) = (  -0.2500000  -0.5000000  -0.2500000), wk =   0.0312500
        k(   39) = (   0.2500000  -0.2500000   0.5000000), wk =   0.0156250
        k(   40) = (   0.2500000   0.2500000  -0.5000000), wk =   0.0156250
        k(   41) = (   0.6250000   0.3750000   0.6250000), wk =   0.0312500
        k(   42) = (  -0.6250000   0.6250000  -0.3750000), wk =   0.0156250
        k(   43) = (  -0.6250000  -0.6250000   0.3750000), wk =   0.0156250
        k(   44) = (   0.5000000   0.2500000   0.5000000), wk =   0.0312500
        k(   45) = (  -0.5000000   0.5000000  -0.2500000), wk =   0.0156250
        k(   46) = (  -0.5000000  -0.5000000   0.2500000), wk =   0.0156250
        k(   47) = (   0.3750000   0.1250000   0.3750000), wk =   0.0312500
        k(   48) = (  -0.3750000   0.3750000  -0.1250000), wk =   0.0156250
        k(   49) = (  -0.3750000  -0.3750000   0.1250000), wk =   0.0156250
        k(   50) = (  -0.2500000   0.2500000   0.0000000), wk =   0.0078125
        k(   51) = (  -0.2500000  -0.2500000   0.0000000), wk =   0.0078125
        k(   52) = (   0.0000000   0.0000000   0.5000000), wk =   0.0078125
        k(   53) = (  -0.1250000  -0.6250000  -0.1250000), wk =   0.0312500
        k(   54) = (   0.1250000  -0.1250000   0.6250000), wk =   0.0156250
        k(   55) = (   0.1250000   0.1250000  -0.6250000), wk =   0.0156250
        k(   56) = (   0.7500000   0.2500000   0.7500000), wk =   0.0312500
        k(   57) = (  -0.7500000   0.7500000  -0.2500000), wk =   0.0156250
        k(   58) = (  -0.7500000  -0.7500000   0.2500000), wk =   0.0156250
        k(   59) = (   0.6250000   0.1250000   0.6250000), wk =   0.0312500
        k(   60) = (  -0.6250000   0.6250000  -0.1250000), wk =   0.0156250
        k(   61) = (  -0.6250000  -0.6250000   0.1250000), wk =   0.0156250
        k(   62) = (  -0.5000000   0.5000000   0.0000000), wk =   0.0078125
        k(   63) = (  -0.5000000  -0.5000000   0.0000000), wk =   0.0078125
        k(   64) = (   0.0000000   0.0000000   0.7500000), wk =   0.0078125
        k(   65) = (   0.8750000   0.1250000   0.8750000), wk =   0.0312500
        k(   66) = (  -0.8750000   0.8750000  -0.1250000), wk =   0.0156250
        k(   67) = (  -0.8750000  -0.8750000   0.1250000), wk =   0.0156250
        k(   68) = (  -0.7500000   0.7500000   0.0000000), wk =   0.0078125
        k(   69) = (  -0.7500000  -0.7500000   0.0000000), wk =   0.0078125
        k(   70) = (   0.0000000   0.0000000  -1.0000000), wk =   0.0039063
        k(   71) = (   0.0000000  -0.5000000  -0.2500000), wk =   0.0312500
        k(   72) = (   0.2500000   0.0000000   0.5000000), wk =   0.0312500
        k(   73) = (   0.2500000   0.5000000   0.0000000), wk =   0.0156250
        k(   74) = (   0.8750000   0.3750000   0.6250000), wk =   0.0312500
        k(   75) = (  -0.8750000   0.3750000  -0.6250000), wk =   0.0312500
        k(   76) = (  -0.6250000   0.8750000  -0.3750000), wk =   0.0312500
        k(   77) = (  -0.6250000  -0.8750000   0.3750000), wk =   0.0312500
        k(   78) = (  -0.6250000  -0.3750000  -0.8750000), wk =   0.0312500
        k(   79) = (   0.7500000   0.2500000   0.5000000), wk =   0.0156250
        k(   80) = (  -0.7500000   0.2500000  -0.5000000), wk =   0.0156250
        k(   81) = (  -0.5000000  -0.7500000   0.2500000), wk =   0.0312500
        k(   82) = (   1.0000000   0.2500000   0.7500000), wk =   0.0312500
        k(   83) = (  -0.7500000   1.0000000  -0.2500000), wk =   0.0312500
        k(   84) = (  -0.7500000  -0.2500000  -1.0000000), wk =   0.0156250
        k(   85) = (   0.8750000   0.1250000   0.6250000), wk =   0.0312500
        k(   86) = (  -0.8750000   0.1250000  -0.6250000), wk =   0.0312500
        k(   87) = (  -0.6250000   0.8750000  -0.1250000), wk =   0.0312500
        k(   88) = (  -0.6250000  -0.8750000   0.1250000), wk =   0.0312500
        k(   89) = (  -0.6250000  -0.1250000  -0.8750000), wk =   0.0312500
        k(   90) = (   0.7500000   0.0000000   0.5000000), wk =   0.0312500
        k(   91) = (  -0.5000000   0.7500000   0.0000000), wk =   0.0156250
        k(   92) = (  -0.5000000  -0.7500000   0.0000000), wk =   0.0156250
        k(   93) = (   0.0000000   1.0000000  -0.2500000), wk =   0.0156250
        k(   94) = (   0.2500000   0.0000000  -1.0000000), wk =   0.0156250
        k(   95) = (   0.0000000   1.0000000  -0.5000000), wk =   0.0078125

     Dense  grid:    17933 G-vectors     FFT dimensions: (  40,  40,  40)

     Largest allocated arrays     est. size (Mb)     dimensions
        Kohn-Sham Wavefunctions         0.14 Mb     (   2252,    4)
        NL pseudopotentials             0.55 Mb     (   2252,   16)
        Each V/rho on FFT grid          0.98 Mb     (  64000)
        Each G-vector array             0.14 Mb     (  17933)
        G-vector shells                 0.00 Mb     (    223)
     Largest temporary arrays     est. size (Mb)     dimensions
        Auxiliary wavefunctions         0.55 Mb     (   2252,   16)
        Each subspace H/S matrix        0.00 Mb     (  16,  16)
        Each <psi_i|beta_j> matrix      0.00 Mb     (     16,    4)
        Arrays for rho mixing           7.81 Mb     (  64000,   8)

     Initial potential from superposition of free atoms

     starting charge    7.99993, renormalised to    8.00000
     Starting wfc are    8 atomic wfcs

     total cpu time spent up to now is        4.5 secs

     per-process dynamical memory:    12.4 Mb

     Self-consistent Calculation

     iteration #  1     ecut=   140.00 Ry     beta=0.70
     Davidson diagonalization with overlap
     ethr =  1.00E-02,  avg # of iterations =  2.7

     Threshold (ethr) on eigenvalues was too large:
     Diagonalizing with lowered threshold

     Davidson diagonalization with overlap
     ethr =  9.98E-04,  avg # of iterations =  2.9

     total cpu time spent up to now is       17.4 secs

     total energy              =     -35.57223182 Ry
     Harris-Foulkes estimate   =     -35.63589380 Ry
     estimated scf accuracy    <       0.11788313 Ry

     iteration #  2     ecut=   140.00 Ry     beta=0.70
     Davidson diagonalization with overlap
     ethr =  1.47E-03,  avg # of iterations =  1.1

     total cpu time spent up to now is       22.2 secs

     total energy              =     -35.57510551 Ry
     Harris-Foulkes estimate   =     -35.57781795 Ry
     estimated scf accuracy    <       0.00557215 Ry

     iteration #  3     ecut=   140.00 Ry     beta=0.70
     Davidson diagonalization with overlap
     ethr =  6.97E-05,  avg # of iterations =  3.2

     total cpu time spent up to now is       30.8 secs

     total energy              =     -35.58338915 Ry
     Harris-Foulkes estimate   =     -35.58519624 Ry
     estimated scf accuracy    <       0.00289861 Ry

     iteration #  4     ecut=   140.00 Ry     beta=0.70
     Davidson diagonalization with overlap
     ethr =  3.62E-05,  avg # of iterations =  3.1

     total cpu time spent up to now is       37.8 secs

     total energy              =     -35.58380230 Ry
     Harris-Foulkes estimate   =     -35.58408612 Ry
     estimated scf accuracy    <       0.00047448 Ry

     iteration #  5     ecut=   140.00 Ry     beta=0.70
     Davidson diagonalization with overlap
     ethr =  5.93E-06,  avg # of iterations =  2.7

     total cpu time spent up to now is       44.1 secs

     End of self-consistent calculation

          k = 0.0000 0.0000 0.0000 (  2229 PWs)   bands (ev):

    -8.4655   9.6897  12.7500  14.9482

          k =-0.1250 0.1250-0.1250 (  2211 PWs)   bands (ev):

    -8.0485   9.3495  10.5804  13.1569

          k =-0.2500 0.2500-0.2500 (  2229 PWs)   bands (ev):

    -6.8158   6.4128   8.6566  12.0224

          k =-0.3750 0.3750-0.3750 (  2229 PWs)   bands (ev):

    -4.8694   2.4350   8.0863  11.3487

          k = 0.5000-0.5000 0.5000 (  2252 PWs)   bands (ev):

    -3.1974   0.0553   7.8757  11.1264

          k = 0.0000 0.2500 0.0000 (  2213 PWs)   bands (ev):

    -7.9126   8.6239  10.9304  12.8484

          k =-0.1250 0.3750-0.1250 (  2227 PWs)   bands (ev):

    -6.9521   7.9883   8.1441  10.9245

          k =-0.2500 0.5000-0.2500 (  2243 PWs)   bands (ev):

    -5.2320   4.0073   7.4254  10.1588

          k = 0.6250-0.3750 0.6250 (  2240 PWs)   bands (ev):

    -3.1731   0.7978   6.8837  10.0154

          k = 0.5000-0.2500 0.5000 (  2237 PWs)   bands (ev):

    -3.7981   1.6315   6.6815  10.4810

          k = 0.3750-0.1250 0.3750 (  2230 PWs)   bands (ev):

    -5.8762   5.2262   6.9364  11.3749

          k = 0.2500 0.0000 0.2500 (  2227 PWs)   bands (ev):

    -7.3602   7.5502   9.2544  12.3285

          k = 0.0000 0.5000 0.0000 (  2221 PWs)   bands (ev):

    -6.2754   6.4072   8.5746   9.7977

          k =-0.1250 0.6250-0.1250 (  2235 PWs)   bands (ev):

    -4.8215   5.4549   6.1542   8.3842

          k = 0.7500-0.2500 0.7500 (  2247 PWs)   bands (ev):

    -2.8142   2.5832   4.7323   8.2137

          k = 0.6250-0.1250 0.6250 (  2248 PWs)   bands (ev):

    -2.2093   1.7641   4.0225   8.7623

          k = 0.5000 0.0000 0.5000 (  2239 PWs)   bands (ev):

    -4.1817   3.6274   4.9459   9.8054

          k = 0.0000 0.7500 0.0000 (  2237 PWs)   bands (ev):

    -3.6369   3.4460   7.0117   7.3852

          k = 0.8750-0.1250 0.8750 (  2246 PWs)   bands (ev):

    -1.8420   1.9417   5.2231   6.9655

          k = 0.7500 0.0000 0.7500 (  2245 PWs)   bands (ev):

    -0.4796   0.8160   3.5278   7.4569

          k = 0.0000-1.0000 0.0000 (  2232 PWs)   bands (ev):

    -0.2133  -0.2133   6.5365   6.5365

          k =-0.2500 0.5000 0.0000 (  2233 PWs)   bands (ev):

    -5.7463   7.0212   7.3844   7.7086

          k = 0.6250-0.3750 0.8750 (  2242 PWs)   bands (ev):

    -3.8619   3.4365   6.6199   7.1445

          k = 0.5000-0.2500 0.7500 (  2250 PWs)   bands (ev):

    -2.2610   1.0976   5.8631   7.6031

          k = 0.7500-0.2500 1.0000 (  2236 PWs)   bands (ev):

    -3.1994   4.1500   5.6835   5.9310

          k = 0.6250-0.1250 0.8750 (  2235 PWs)   bands (ev):

    -1.3322   2.3223   3.6986   6.2035

          k = 0.5000 0.0000 0.7500 (  2246 PWs)   bands (ev):

    -1.8327   2.1838   3.6368   7.3179

          k =-0.2500-1.0000 0.0000 (  2236 PWs)   bands (ev):

    -0.1241   0.3358   5.3148   5.6886

          k =-0.5000-1.0000 0.0000 (  2244 PWs)   bands (ev):

    -0.0113   1.3507   3.6200   5.0416

          k =-0.1250-0.1250-0.1250 (  2211 PWs)   bands (ev):

    -8.0509   8.3531  11.5998  13.4688

          k =-0.2500-0.2500-0.2500 (  2229 PWs)   bands (ev):

    -6.8178   5.1338  10.0541  12.1369

          k =-0.3750-0.3750-0.3750 (  2229 PWs)   bands (ev):

    -4.8111   1.4774   9.1049  11.3326

          k = 0.5000 0.5000 0.5000 (  2252 PWs)   bands (ev):

    -2.6203  -1.3188   8.7885  11.0676

          k = 0.0000 0.0000 0.2500 (  2213 PWs)   bands (ev):

    -7.9088   8.7377  11.3134  11.8305

          k =-0.1250-0.3750-0.1250 (  2227 PWs)   bands (ev):

    -6.9551   6.2022   9.4690  11.9723

          k = 0.1250-0.1250 0.3750 (  2227 PWs)   bands (ev):

    -6.9457   7.7944   7.9364  11.3561

          k = 0.1250 0.1250-0.3750 (  2227 PWs)   bands (ev):

    -6.9462   6.5245   9.8857  10.5648

          k =-0.2500-0.5000-0.2500 (  2243 PWs)   bands (ev):

    -5.2066   2.8429   8.4501  10.6343

          k = 0.2500-0.2500 0.5000 (  2243 PWs)   bands (ev):

    -5.2191   3.8645   7.4215  10.3296

          k = 0.2500 0.2500-0.5000 (  2243 PWs)   bands (ev):

    -5.1967   2.9815   8.5754   9.9673

          k = 0.6250 0.3750 0.6250 (  2240 PWs)   bands (ev):

    -2.8204  -0.4272   8.0342   9.8458

          k =-0.6250 0.6250-0.3750 (  2240 PWs)   bands (ev):

    -3.1567   0.7420   7.3836   9.3660

          k =-0.6250-0.6250 0.3750 (  2240 PWs)   bands (ev):

    -2.8200  -0.3850   7.6626  10.0899

          k = 0.5000 0.2500 0.5000 (  2237 PWs)   bands (ev):

    -3.6561   0.6356   7.9930   9.9593

          k =-0.5000 0.5000-0.2500 (  2237 PWs)   bands (ev):

    -3.8148   1.6889   7.8177   8.8422

          k =-0.5000-0.5000 0.2500 (  2237 PWs)   bands (ev):

    -3.6519   0.5894   7.3580  10.8892

          k = 0.3750 0.1250 0.3750 (  2230 PWs)   bands (ev):

    -5.8696   4.1600   8.3553  10.9156

          k =-0.3750 0.3750-0.1250 (  2230 PWs)   bands (ev):

    -5.8832   5.3815   8.5620   8.9274

          k =-0.3750-0.3750 0.1250 (  2230 PWs)   bands (ev):

    -5.8763   3.9318   7.8694  12.2398

          k =-0.2500 0.2500 0.0000 (  2227 PWs)   bands (ev):

    -7.3605   9.1800   9.2498  10.0384

          k =-0.2500-0.2500 0.0000 (  2227 PWs)   bands (ev):

    -7.3672   6.7022   9.6031  13.7645

          k = 0.0000 0.0000 0.5000 (  2221 PWs)   bands (ev):

    -6.2596   7.0153   8.0898   9.1668

          k =-0.1250-0.6250-0.1250 (  2235 PWs)   bands (ev):

    -4.8065   3.9985   7.4870   8.7868

          k = 0.1250-0.1250 0.6250 (  2235 PWs)   bands (ev):

    -4.7938   5.2328   6.4238   8.0765

          k = 0.1250 0.1250-0.6250 (  2235 PWs)   bands (ev):

    -4.7861   4.6837   6.6202   8.4334

          k = 0.7500 0.2500 0.7500 (  2247 PWs)   bands (ev):

    -2.6281   1.1709   6.2773   8.0346

          k =-0.7500 0.7500-0.2500 (  2247 PWs)   bands (ev):

    -2.7719   2.2687   6.3789   6.5387

          k =-0.7500-0.7500 0.2500 (  2247 PWs)   bands (ev):

    -2.6229   1.4808   5.2896   8.4786

          k = 0.6250 0.1250 0.6250 (  2248 PWs)   bands (ev):

    -1.9119   0.4972   5.2258   8.5376

          k =-0.6250 0.6250-0.1250 (  2248 PWs)   bands (ev):

    -2.2741   1.8315   5.4200   6.8854

          k =-0.6250-0.6250 0.1250 (  2248 PWs)   bands (ev):

    -1.8180   0.3974   4.5442   9.2901

          k =-0.5000 0.5000 0.0000 (  2239 PWs)   bands (ev):

    -4.2273   5.0175   5.0255   7.7610

          k =-0.5000-0.5000 0.0000 (  2239 PWs)   bands (ev):

    -4.1562   2.7682   5.1931  10.7264

          k = 0.0000 0.0000 0.7500 (  2237 PWs)   bands (ev):

    -3.6014   4.1307   5.7065   7.4885

          k = 0.8750 0.1250 0.8750 (  2246 PWs)   bands (ev):

    -1.7350   1.4276   5.7567   6.9196

          k =-0.8750 0.8750-0.1250 (  2246 PWs)   bands (ev):

    -1.7982   2.1820   5.5462   5.9725

          k =-0.8750-0.8750 0.1250 (  2246 PWs)   bands (ev):

    -1.7418   2.1688   4.2432   7.3230

          k =-0.7500 0.7500 0.0000 (  2245 PWs)   bands (ev):

    -0.8775   1.7923   3.9844   5.9880

          k =-0.7500-0.7500 0.0000 (  2245 PWs)   bands (ev):

     0.2003   0.3415   2.6978   7.9585

          k = 0.0000 0.0000-1.0000 (  2232 PWs)   bands (ev):

    -0.6738   0.6911   5.2369   6.9174

          k = 0.0000-0.5000-0.2500 (  2233 PWs)   bands (ev):

    -5.7405   5.4011   7.0694  10.2129

          k = 0.2500 0.0000 0.5000 (  2233 PWs)   bands (ev):

    -5.7284   5.6666   6.8213   9.9015

          k = 0.2500 0.5000 0.0000 (  2233 PWs)   bands (ev):

    -5.7405   4.5947   7.3430  11.1558

          k = 0.8750 0.3750 0.6250 (  2242 PWs)   bands (ev):

    -3.7818   2.1688   6.8145   8.5689

          k =-0.8750 0.3750-0.6250 (  2242 PWs)   bands (ev):

    -3.8400   3.3323   5.0630   9.2550

          k =-0.6250 0.8750-0.3750 (  2242 PWs)   bands (ev):

    -3.8209   3.1580   5.5613   8.6731

          k =-0.6250-0.8750 0.3750 (  2242 PWs)   bands (ev):

    -3.7687   2.3378   6.2101   8.8410

          k =-0.6250-0.3750-0.8750 (  2242 PWs)   bands (ev):

    -3.7649   2.0348   6.0553   9.6614

          k = 0.7500 0.2500 0.5000 (  2250 PWs)   bands (ev):

    -1.6648  -0.4371   7.2487   7.4196

          k =-0.7500 0.2500-0.5000 (  2250 PWs)   bands (ev):

    -2.2589   1.1453   4.8894   8.8625

          k =-0.5000-0.7500 0.2500 (  2250 PWs)   bands (ev):

    -1.6423  -0.3998   5.9140   8.7218

          k = 1.0000 0.2500 0.7500 (  2236 PWs)   bands (ev):

    -3.1548   3.1037   5.7008   7.1623

          k =-0.7500 1.0000-0.2500 (  2236 PWs)   bands (ev):

    -3.1241   3.6835   4.9079   7.0364

          k =-0.7500-0.2500-1.0000 (  2236 PWs)   bands (ev):

    -3.1088   2.5357   5.8099   7.7070

          k = 0.8750 0.1250 0.6250 (  2235 PWs)   bands (ev):

    -0.9318   0.7445   5.0896   6.1521

          k =-0.8750 0.1250-0.6250 (  2235 PWs)   bands (ev):

    -1.2667   2.0394   3.4394   6.8542

          k =-0.6250 0.8750-0.1250 (  2235 PWs)   bands (ev):

    -1.2850   2.0630   4.6313   5.3448

          k =-0.6250-0.8750 0.1250 (  2235 PWs)   bands (ev):

    -0.9304   1.1817   3.6566   7.0248

          k =-0.6250-0.1250-0.8750 (  2235 PWs)   bands (ev):

    -0.8215   0.6581   4.4224   6.8054

          k = 0.7500 0.0000 0.5000 (  2246 PWs)   bands (ev):

    -1.8459   1.9685   3.8819   7.4220

          k =-0.5000 0.7500 0.0000 (  2246 PWs)   bands (ev):

    -2.0143   3.2496   4.0362   5.7680

          k =-0.5000-0.7500 0.0000 (  2246 PWs)   bands (ev):

    -1.6374   1.3003   3.7596   8.0485

          k = 0.0000 1.0000-0.2500 (  2236 PWs)   bands (ev):

     0.0803   0.0803   5.5471   5.5471

          k = 0.2500 0.0000-1.0000 (  2236 PWs)   bands (ev):

    -0.4144   1.0971   4.2617   6.0053

          k = 0.0000 1.0000-0.5000 (  2244 PWs)   bands (ev):

     0.4545   0.4545   4.6121   4.6121

!    total energy              =     -35.58389199 Ry
     Harris-Foulkes estimate   =     -35.58389241 Ry
     estimated scf accuracy    <       0.00000041 Ry

     total all-electron energy =      -151.142888 Ry

     The total energy is the sum of the following terms:

     one-electron contribution =       7.90909971 Ry
     hartree contribution      =       1.99500402 Ry
     xc contribution           =      -8.31176246 Ry
     ewald contribution        =     -25.10629542 Ry
     one-center paw contrib.   =     -12.06993784 Ry

     convergence has been achieved in   5 iterations

     Forces acting on atoms (Ry/au):

     atom    1 type  1   force =     0.00000000    0.00000000   -0.21782986
     atom    2 type  1   force =     0.00000000    0.00000000    0.21782986

     Total force =     0.308058     Total SCF correction =     0.000071

     Writing output data file diamond.save

     init_run     :      4.36s CPU      4.25s WALL (       1 calls)
     electrons    :     41.60s CPU     39.61s WALL (       1 calls)
     forces       :      0.79s CPU      0.65s WALL (       1 calls)

     Called by init_run:
     wfcinit      :      3.54s CPU      3.38s WALL (       1 calls)
     potinit      :      0.05s CPU      0.06s WALL (       1 calls)

     Called by electrons:
     c_bands      :     35.23s CPU     33.28s WALL (       6 calls)
     sum_band     :      5.88s CPU      5.75s WALL (       6 calls)
     v_of_rho     :      0.08s CPU      0.09s WALL (       6 calls)
     newd         :      0.21s CPU      0.22s WALL (       6 calls)
     mix_rho      :      0.07s CPU      0.07s WALL (       6 calls)

     Called by c_bands:
     init_us_2    :      1.51s CPU      1.70s WALL (    1330 calls)
     cegterg      :     33.46s CPU     30.42s WALL (     570 calls)

     Called by *egterg:
     h_psi        :     30.03s CPU     28.84s WALL (    2152 calls)
     s_psi        :      2.01s CPU      1.12s WALL (    2152 calls)
     g_psi        :      0.12s CPU      0.17s WALL (    1487 calls)
     cdiaghg      :      0.36s CPU      0.40s WALL (    1962 calls)

     Called by h_psi:
     add_vuspsi   :      1.98s CPU      1.14s WALL (    2152 calls)

     General routines
     calbec       :      3.06s CPU      1.75s WALL (    2817 calls)
     fft          :      0.09s CPU      0.11s WALL (      42 calls)
     fftw         :     25.77s CPU     26.39s WALL (   17280 calls)
     davcio       :      0.25s CPU      1.26s WALL (    1900 calls)


     PAW routines
     PAW_pot      :      0.16s CPU      0.17s WALL (       6 calls)
     PAW_ddot     :      0.05s CPU      0.05s WALL (      22 calls)
     PAW_symme    :      0.00s CPU      0.00s WALL (      12 calls)

     PWSCF        :    47.22s CPU        45.18s WALL


   This run was terminated on:  21:51: 9  26Mar2012            

=------------------------------------------------------------------------------=
   JOB DONE.
=------------------------------------------------------------------------------=
