
     Program PWSCF v.4.3.2      starts on 26Mar2012 at 21:51: 9 

     This program is part of the open-source Quantum ESPRESSO suite
     for quantum simulation of materials; please cite
         "P. Giannozzi et al., J. Phys.:Condens. Matter 21 395502 (2009);
          URL http://www.quantum-espresso.org", 
     in publications or presentations arising from this work. More details at
     http://www.quantum-espresso.org/wiki/index.php/Citing_Quantum-ESPRESSO

     Current dimensions of program PWSCF are:
     Max number of different atomic species (ntypx) = 10
     Max number of k-points (npk) =  40000
     Max angular momentum in pseudopotentials (lmaxx) =  3
     Waiting for input...
     Reading input from stdin

     G-vector sticks info
     --------------------
     sticks:   dense  smooth     PW     G-vecs:    dense   smooth      PW
     Sum         913     913    271                18053    18053    2975



     bravais-lattice index     =            2
     lattice parameter (alat)  =       6.8500  a.u.
     unit-cell volume          =      80.3548 (a.u.)^3
     number of atoms/cell      =            2
     number of atomic types    =            1
     number of electrons       =         8.00
     number of Kohn-Sham states=            4
     kinetic-energy cutoff     =     140.0000  Ry
     charge density cutoff     =     560.0000  Ry
     convergence threshold     =      1.0E-06
     mixing beta               =       0.7000
     number of iterations used =            8  plain     mixing
     Exchange-correlation      =  SLA  PZ   NOGX NOGC ( 1 1 0 0 0)
     EXX-fraction              =        0.00

     celldm(1)=   6.850000  celldm(2)=   0.000000  celldm(3)=   0.000000
     celldm(4)=   0.000000  celldm(5)=   0.000000  celldm(6)=   0.000000

     crystal axes: (cart. coord. in units of alat)
               a(1) = (  -0.500000   0.000000   0.500000 )  
               a(2) = (   0.000000   0.500000   0.500000 )  
               a(3) = (  -0.500000   0.500000   0.000000 )  

     reciprocal axes: (cart. coord. in units 2 pi/alat)
               b(1) = ( -1.000000 -1.000000  1.000000 )  
               b(2) = (  1.000000  1.000000  1.000000 )  
               b(3) = ( -1.000000  1.000000 -1.000000 )  


     PseudoPot. # 1 for  C read from file:
     /home/mullspace/Documents/espresso-4.3.2/pseudo/C.pz-kjpaw.UPF
     MD5 check sum: 414e6e825ae75add557e798061b49a04
     Pseudo is Projector augmented-wave + core cor, Zval =  4.0
     Generated using "atomic" code by A. Dal Corso (espresso distribution)
     Shape of augmentation charge: BESSEL
     Using radial grid of 1073 points,  4 beta functions with: 
                l(1) =   0
                l(2) =   0
                l(3) =   1
                l(4) =   1
     Q(r) pseudized with 0 coefficients 


     atomic species   valence    mass     pseudopotential
        C              4.00    12.01070      C( 1.00)

      8 Sym.Ops. (with inversion)


   Cartesian axes

     site n.     atom                  positions (alat units)
         1           C   tau(   1) = (   0.0000000   0.0000000   0.0500000  )
         2           C   tau(   2) = (   0.2500000   0.2500000   0.2500000  )

     number of k points=    95
                       cart. coord. in units 2pi/alat
        k(    1) = (   0.0000000   0.0000000   0.0000000), wk =   0.0039063
        k(    2) = (  -0.1250000   0.1250000  -0.1250000), wk =   0.0156250
        k(    3) = (  -0.2500000   0.2500000  -0.2500000), wk =   0.0156250
        k(    4) = (  -0.3750000   0.3750000  -0.3750000), wk =   0.0156250
        k(    5) = (   0.5000000  -0.5000000   0.5000000), wk =   0.0078125
        k(    6) = (   0.0000000   0.2500000   0.0000000), wk =   0.0156250
        k(    7) = (  -0.1250000   0.3750000  -0.1250000), wk =   0.0312500
        k(    8) = (  -0.2500000   0.5000000  -0.2500000), wk =   0.0312500
        k(    9) = (   0.6250000  -0.3750000   0.6250000), wk =   0.0312500
        k(   10) = (   0.5000000  -0.2500000   0.5000000), wk =   0.0312500
        k(   11) = (   0.3750000  -0.1250000   0.3750000), wk =   0.0312500
        k(   12) = (   0.2500000   0.0000000   0.2500000), wk =   0.0312500
        k(   13) = (   0.0000000   0.5000000   0.0000000), wk =   0.0156250
        k(   14) = (  -0.1250000   0.6250000  -0.1250000), wk =   0.0312500
        k(   15) = (   0.7500000  -0.2500000   0.7500000), wk =   0.0312500
        k(   16) = (   0.6250000  -0.1250000   0.6250000), wk =   0.0312500
        k(   17) = (   0.5000000   0.0000000   0.5000000), wk =   0.0312500
        k(   18) = (   0.0000000   0.7500000   0.0000000), wk =   0.0156250
        k(   19) = (   0.8750000  -0.1250000   0.8750000), wk =   0.0312500
        k(   20) = (   0.7500000   0.0000000   0.7500000), wk =   0.0312500
        k(   21) = (   0.0000000  -1.0000000   0.0000000), wk =   0.0078125
        k(   22) = (  -0.2500000   0.5000000   0.0000000), wk =   0.0156250
        k(   23) = (   0.6250000  -0.3750000   0.8750000), wk =   0.0312500
        k(   24) = (   0.5000000  -0.2500000   0.7500000), wk =   0.0312500
        k(   25) = (   0.7500000  -0.2500000   1.0000000), wk =   0.0156250
        k(   26) = (   0.6250000  -0.1250000   0.8750000), wk =   0.0312500
        k(   27) = (   0.5000000   0.0000000   0.7500000), wk =   0.0312500
        k(   28) = (  -0.2500000  -1.0000000   0.0000000), wk =   0.0156250
        k(   29) = (  -0.5000000  -1.0000000   0.0000000), wk =   0.0156250
        k(   30) = (  -0.1250000  -0.1250000  -0.1250000), wk =   0.0156250
        k(   31) = (  -0.2500000  -0.2500000  -0.2500000), wk =   0.0156250
        k(   32) = (  -0.3750000  -0.3750000  -0.3750000), wk =   0.0156250
        k(   33) = (   0.5000000   0.5000000   0.5000000), wk =   0.0078125
        k(   34) = (   0.0000000   0.0000000   0.2500000), wk =   0.0078125
        k(   35) = (  -0.1250000  -0.3750000  -0.1250000), wk =   0.0312500
        k(   36) = (   0.1250000  -0.1250000   0.3750000), wk =   0.0156250
        k(   37) = (   0.1250000   0.1250000  -0.3750000), wk =   0.0156250
        k(   38) = (  -0.2500000  -0.5000000  -0.2500000), wk =   0.0312500
        k(   39) = (   0.2500000  -0.2500000   0.5000000), wk =   0.0156250
        k(   40) = (   0.2500000   0.2500000  -0.5000000), wk =   0.0156250
        k(   41) = (   0.6250000   0.3750000   0.6250000), wk =   0.0312500
        k(   42) = (  -0.6250000   0.6250000  -0.3750000), wk =   0.0156250
        k(   43) = (  -0.6250000  -0.6250000   0.3750000), wk =   0.0156250
        k(   44) = (   0.5000000   0.2500000   0.5000000), wk =   0.0312500
        k(   45) = (  -0.5000000   0.5000000  -0.2500000), wk =   0.0156250
        k(   46) = (  -0.5000000  -0.5000000   0.2500000), wk =   0.0156250
        k(   47) = (   0.3750000   0.1250000   0.3750000), wk =   0.0312500
        k(   48) = (  -0.3750000   0.3750000  -0.1250000), wk =   0.0156250
        k(   49) = (  -0.3750000  -0.3750000   0.1250000), wk =   0.0156250
        k(   50) = (  -0.2500000   0.2500000   0.0000000), wk =   0.0078125
        k(   51) = (  -0.2500000  -0.2500000   0.0000000), wk =   0.0078125
        k(   52) = (   0.0000000   0.0000000   0.5000000), wk =   0.0078125
        k(   53) = (  -0.1250000  -0.6250000  -0.1250000), wk =   0.0312500
        k(   54) = (   0.1250000  -0.1250000   0.6250000), wk =   0.0156250
        k(   55) = (   0.1250000   0.1250000  -0.6250000), wk =   0.0156250
        k(   56) = (   0.7500000   0.2500000   0.7500000), wk =   0.0312500
        k(   57) = (  -0.7500000   0.7500000  -0.2500000), wk =   0.0156250
        k(   58) = (  -0.7500000  -0.7500000   0.2500000), wk =   0.0156250
        k(   59) = (   0.6250000   0.1250000   0.6250000), wk =   0.0312500
        k(   60) = (  -0.6250000   0.6250000  -0.1250000), wk =   0.0156250
        k(   61) = (  -0.6250000  -0.6250000   0.1250000), wk =   0.0156250
        k(   62) = (  -0.5000000   0.5000000   0.0000000), wk =   0.0078125
        k(   63) = (  -0.5000000  -0.5000000   0.0000000), wk =   0.0078125
        k(   64) = (   0.0000000   0.0000000   0.7500000), wk =   0.0078125
        k(   65) = (   0.8750000   0.1250000   0.8750000), wk =   0.0312500
        k(   66) = (  -0.8750000   0.8750000  -0.1250000), wk =   0.0156250
        k(   67) = (  -0.8750000  -0.8750000   0.1250000), wk =   0.0156250
        k(   68) = (  -0.7500000   0.7500000   0.0000000), wk =   0.0078125
        k(   69) = (  -0.7500000  -0.7500000   0.0000000), wk =   0.0078125
        k(   70) = (   0.0000000   0.0000000  -1.0000000), wk =   0.0039063
        k(   71) = (   0.0000000  -0.5000000  -0.2500000), wk =   0.0312500
        k(   72) = (   0.2500000   0.0000000   0.5000000), wk =   0.0312500
        k(   73) = (   0.2500000   0.5000000   0.0000000), wk =   0.0156250
        k(   74) = (   0.8750000   0.3750000   0.6250000), wk =   0.0312500
        k(   75) = (  -0.8750000   0.3750000  -0.6250000), wk =   0.0312500
        k(   76) = (  -0.6250000   0.8750000  -0.3750000), wk =   0.0312500
        k(   77) = (  -0.6250000  -0.8750000   0.3750000), wk =   0.0312500
        k(   78) = (  -0.6250000  -0.3750000  -0.8750000), wk =   0.0312500
        k(   79) = (   0.7500000   0.2500000   0.5000000), wk =   0.0156250
        k(   80) = (  -0.7500000   0.2500000  -0.5000000), wk =   0.0156250
        k(   81) = (  -0.5000000  -0.7500000   0.2500000), wk =   0.0312500
        k(   82) = (   1.0000000   0.2500000   0.7500000), wk =   0.0312500
        k(   83) = (  -0.7500000   1.0000000  -0.2500000), wk =   0.0312500
        k(   84) = (  -0.7500000  -0.2500000  -1.0000000), wk =   0.0156250
        k(   85) = (   0.8750000   0.1250000   0.6250000), wk =   0.0312500
        k(   86) = (  -0.8750000   0.1250000  -0.6250000), wk =   0.0312500
        k(   87) = (  -0.6250000   0.8750000  -0.1250000), wk =   0.0312500
        k(   88) = (  -0.6250000  -0.8750000   0.1250000), wk =   0.0312500
        k(   89) = (  -0.6250000  -0.1250000  -0.8750000), wk =   0.0312500
        k(   90) = (   0.7500000   0.0000000   0.5000000), wk =   0.0312500
        k(   91) = (  -0.5000000   0.7500000   0.0000000), wk =   0.0156250
        k(   92) = (  -0.5000000  -0.7500000   0.0000000), wk =   0.0156250
        k(   93) = (   0.0000000   1.0000000  -0.2500000), wk =   0.0156250
        k(   94) = (   0.2500000   0.0000000  -1.0000000), wk =   0.0156250
        k(   95) = (   0.0000000   1.0000000  -0.5000000), wk =   0.0078125

     Dense  grid:    18053 G-vectors     FFT dimensions: (  40,  40,  40)

     Largest allocated arrays     est. size (Mb)     dimensions
        Kohn-Sham Wavefunctions         0.14 Mb     (   2272,    4)
        NL pseudopotentials             0.55 Mb     (   2272,   16)
        Each V/rho on FFT grid          0.98 Mb     (  64000)
        Each G-vector array             0.14 Mb     (  18053)
        G-vector shells                 0.00 Mb     (    224)
     Largest temporary arrays     est. size (Mb)     dimensions
        Auxiliary wavefunctions         0.55 Mb     (   2272,   16)
        Each subspace H/S matrix        0.00 Mb     (  16,  16)
        Each <psi_i|beta_j> matrix      0.00 Mb     (     16,    4)
        Arrays for rho mixing           7.81 Mb     (  64000,   8)

     Initial potential from superposition of free atoms

     starting charge    7.99993, renormalised to    8.00000
     Starting wfc are    8 atomic wfcs

     total cpu time spent up to now is        4.5 secs

     per-process dynamical memory:    12.4 Mb

     Self-consistent Calculation

     iteration #  1     ecut=   140.00 Ry     beta=0.70
     Davidson diagonalization with overlap
     ethr =  1.00E-02,  avg # of iterations =  2.7

     Threshold (ethr) on eigenvalues was too large:
     Diagonalizing with lowered threshold

     Davidson diagonalization with overlap
     ethr =  9.76E-04,  avg # of iterations =  2.9

     total cpu time spent up to now is       17.1 secs

     total energy              =     -35.57189541 Ry
     Harris-Foulkes estimate   =     -35.63480844 Ry
     estimated scf accuracy    <       0.11670063 Ry

     iteration #  2     ecut=   140.00 Ry     beta=0.70
     Davidson diagonalization with overlap
     ethr =  1.46E-03,  avg # of iterations =  1.1

     total cpu time spent up to now is       22.0 secs

     total energy              =     -35.57476722 Ry
     Harris-Foulkes estimate   =     -35.57743272 Ry
     estimated scf accuracy    <       0.00549689 Ry

     iteration #  3     ecut=   140.00 Ry     beta=0.70
     Davidson diagonalization with overlap
     ethr =  6.87E-05,  avg # of iterations =  3.2

     total cpu time spent up to now is       31.0 secs

     total energy              =     -35.58292355 Ry
     Harris-Foulkes estimate   =     -35.58469065 Ry
     estimated scf accuracy    <       0.00283896 Ry

     iteration #  4     ecut=   140.00 Ry     beta=0.70
     Davidson diagonalization with overlap
     ethr =  3.55E-05,  avg # of iterations =  3.1

     total cpu time spent up to now is       38.0 secs

     total energy              =     -35.58332708 Ry
     Harris-Foulkes estimate   =     -35.58360092 Ry
     estimated scf accuracy    <       0.00045877 Ry

     iteration #  5     ecut=   140.00 Ry     beta=0.70
     Davidson diagonalization with overlap
     ethr =  5.73E-06,  avg # of iterations =  2.7

     total cpu time spent up to now is       44.2 secs

     End of self-consistent calculation

          k = 0.0000 0.0000 0.0000 (  2229 PWs)   bands (ev):

    -8.4861   9.6189  12.6716  14.8641

          k =-0.1250 0.1250-0.1250 (  2217 PWs)   bands (ev):

    -8.0704   9.2804  10.5102  13.0798

          k =-0.2500 0.2500-0.2500 (  2238 PWs)   bands (ev):

    -6.8419   6.3561   8.5906  11.9496

          k =-0.3750 0.3750-0.3750 (  2235 PWs)   bands (ev):

    -4.9036   2.3926   8.0226  11.2782

          k = 0.5000-0.5000 0.5000 (  2252 PWs)   bands (ev):

    -3.2438   0.0273   7.8129  11.0567

          k = 0.0000 0.2500 0.0000 (  2225 PWs)   bands (ev):

    -7.9348   8.5555  10.8606  12.7709

          k =-0.1250 0.3750-0.1250 (  2237 PWs)   bands (ev):

    -6.9776   7.9251   8.0801  10.8541

          k =-0.2500 0.5000-0.2500 (  2255 PWs)   bands (ev):

    -5.2641   3.9592   7.3620  10.0921

          k = 0.6250-0.3750 0.6250 (  2250 PWs)   bands (ev):

    -3.2173   0.7651   6.8223   9.9498

          k = 0.5000-0.2500 0.5000 (  2245 PWs)   bands (ev):

    -3.8373   1.5930   6.6213  10.4136

          k = 0.3750-0.1250 0.3750 (  2240 PWs)   bands (ev):

    -5.9055   5.1726   6.8761  11.3037

          k = 0.2500 0.0000 0.2500 (  2239 PWs)   bands (ev):

    -7.3842   7.4863   9.1885  12.2537

          k = 0.0000 0.5000 0.0000 (  2269 PWs)   bands (ev):

    -6.3028   6.3425   8.5145   9.7304

          k =-0.1250 0.6250-0.1250 (  2243 PWs)   bands (ev):

    -4.8543   5.3912   6.1023   8.3243

          k = 0.7500-0.2500 0.7500 (  2257 PWs)   bands (ev):

    -2.8566   2.5396   4.6775   8.1554

          k = 0.6250-0.1250 0.6250 (  2255 PWs)   bands (ev):

    -2.2559   1.7250   3.9710   8.7018

          k = 0.5000 0.0000 0.5000 (  2239 PWs)   bands (ev):

    -4.2167   3.5726   4.8969   9.7404

          k = 0.0000 0.7500 0.0000 (  2249 PWs)   bands (ev):

    -3.6729   3.3863   6.9579   7.3301

          k = 0.8750-0.1250 0.8750 (  2254 PWs)   bands (ev):

    -1.8857   1.8876   5.1764   6.9122

          k = 0.7500 0.0000 0.7500 (  2257 PWs)   bands (ev):

    -0.5325   0.7670   3.4906   7.4016

          k = 0.0000-1.0000 0.0000 (  2272 PWs)   bands (ev):

    -0.2611  -0.2611   6.4849   6.4849

          k =-0.2500 0.5000 0.0000 (  2247 PWs)   bands (ev):

    -5.7763   6.9652   7.3215   7.6461

          k = 0.6250-0.3750 0.8750 (  2254 PWs)   bands (ev):

    -3.8999   3.3909   6.5585   7.0888

          k = 0.5000-0.2500 0.7500 (  2250 PWs)   bands (ev):

    -2.3101   1.0644   5.8059   7.5454

          k = 0.7500-0.2500 1.0000 (  2236 PWs)   bands (ev):

    -3.2390   4.0898   5.6340   5.8810

          k = 0.6250-0.1250 0.8750 (  2244 PWs)   bands (ev):

    -1.3824   2.2723   3.6567   6.1527

          k = 0.5000 0.0000 0.7500 (  2256 PWs)   bands (ev):

    -1.8783   2.1316   3.5946   7.2634

          k =-0.2500-1.0000 0.0000 (  2240 PWs)   bands (ev):

    -0.1763   0.2881   5.2671   5.6424

          k =-0.5000-1.0000 0.0000 (  2244 PWs)   bands (ev):

    -0.0682   1.2990   3.5803   5.0001

          k =-0.1250-0.1250-0.1250 (  2217 PWs)   bands (ev):

    -8.0726   8.2860  11.5261  13.3912

          k =-0.2500-0.2500-0.2500 (  2238 PWs)   bands (ev):

    -6.8432   5.0761   9.9860  12.0641

          k =-0.3750-0.3750-0.3750 (  2235 PWs)   bands (ev):

    -4.8428   1.4309   9.0399  11.2624

          k = 0.5000 0.5000 0.5000 (  2252 PWs)   bands (ev):

    -2.6639  -1.3517   8.7245  10.9983

          k = 0.0000 0.0000 0.2500 (  2225 PWs)   bands (ev):

    -7.9311   8.6719  11.2354  11.7597

          k =-0.1250-0.3750-0.1250 (  2237 PWs)   bands (ev):

    -6.9802   6.1396   9.4051  11.8981

          k = 0.1250-0.1250 0.3750 (  2237 PWs)   bands (ev):

    -6.9712   7.7314   7.8742  11.2825

          k = 0.1250 0.1250-0.3750 (  2237 PWs)   bands (ev):

    -6.9715   6.4648   9.8126  10.4987

          k =-0.2500-0.5000-0.2500 (  2255 PWs)   bands (ev):

    -5.2369   2.7906   8.3888  10.5652

          k = 0.2500-0.2500 0.5000 (  2255 PWs)   bands (ev):

    -5.2511   3.8154   7.3614  10.2599

          k = 0.2500 0.2500-0.5000 (  2255 PWs)   bands (ev):

    -5.2275   2.9313   8.5083   9.9032

          k = 0.6250 0.3750 0.6250 (  2250 PWs)   bands (ev):

    -2.8600  -0.4671   7.9730   9.7803

          k =-0.6250 0.6250-0.3750 (  2250 PWs)   bands (ev):

    -3.2010   0.7090   7.3234   9.3002

          k =-0.6250-0.6250 0.3750 (  2250 PWs)   bands (ev):

    -2.8602  -0.4237   7.6001  10.0250

          k = 0.5000 0.2500 0.5000 (  2245 PWs)   bands (ev):

    -3.6923   0.5921   7.9314   9.8937

          k =-0.5000 0.5000-0.2500 (  2245 PWs)   bands (ev):

    -3.8544   1.6508   7.7553   8.7787

          k =-0.5000-0.5000 0.2500 (  2245 PWs)   bands (ev):

    -3.6872   0.5445   7.2984  10.8210

          k = 0.3750 0.1250 0.3750 (  2240 PWs)   bands (ev):

    -5.8982   4.1055   8.2926  10.8462

          k =-0.3750 0.3750-0.1250 (  2240 PWs)   bands (ev):

    -5.9129   5.3291   8.4961   8.8637

          k =-0.3750-0.3750 0.1250 (  2240 PWs)   bands (ev):

    -5.9043   3.8749   7.8106  12.1661

          k =-0.2500 0.2500 0.0000 (  2239 PWs)   bands (ev):

    -7.3848   9.1159   9.1807   9.9705

          k =-0.2500-0.2500 0.0000 (  2239 PWs)   bands (ev):

    -7.3908   6.6371   9.5397  13.6847

          k = 0.0000 0.0000 0.5000 (  2269 PWs)   bands (ev):

    -6.2872   6.9575   8.0176   9.1061

          k =-0.1250-0.6250-0.1250 (  2243 PWs)   bands (ev):

    -4.8382   3.9384   7.4311   8.7255

          k = 0.1250-0.1250 0.6250 (  2243 PWs)   bands (ev):

    -4.8265   5.1733   6.3685   8.0172

          k = 0.1250 0.1250-0.6250 (  2243 PWs)   bands (ev):

    -4.8185   4.6283   6.5579   8.3754

          k = 0.7500 0.2500 0.7500 (  2257 PWs)   bands (ev):

    -2.6669   1.1207   6.2242   7.9768

          k =-0.7500 0.7500-0.2500 (  2257 PWs)   bands (ev):

    -2.8146   2.2242   6.3235   6.4842

          k =-0.7500-0.7500 0.2500 (  2257 PWs)   bands (ev):

    -2.6631   1.4343   5.2341   8.4203

          k = 0.6250 0.1250 0.6250 (  2255 PWs)   bands (ev):

    -1.9561   0.4536   5.1754   8.4777

          k =-0.6250 0.6250-0.1250 (  2255 PWs)   bands (ev):

    -2.3221   1.7939   5.3687   6.8276

          k =-0.6250-0.6250 0.1250 (  2255 PWs)   bands (ev):

    -1.8595   0.3506   4.4944   9.2286

          k =-0.5000 0.5000 0.0000 (  2239 PWs)   bands (ev):

    -4.2639   4.9639   4.9770   7.6990

          k =-0.5000-0.5000 0.0000 (  2239 PWs)   bands (ev):

    -4.1891   2.7097   5.1457  10.6592

          k = 0.0000 0.0000 0.7500 (  2249 PWs)   bands (ev):

    -3.6381   4.0710   5.6543   7.4340

          k = 0.8750 0.1250 0.8750 (  2254 PWs)   bands (ev):

    -1.7767   1.3719   5.7094   6.8666

          k =-0.8750 0.8750-0.1250 (  2254 PWs)   bands (ev):

    -1.8433   2.1302   5.4945   5.9253

          k =-0.8750-0.8750 0.1250 (  2254 PWs)   bands (ev):

    -1.7859   2.1151   4.1973   7.2691

          k =-0.7500 0.7500 0.0000 (  2257 PWs)   bands (ev):

    -0.9333   1.7478   3.9470   5.9343

          k =-0.7500-0.7500 0.0000 (  2257 PWs)   bands (ev):

     0.1458   0.2926   2.6620   7.9021

          k = 0.0000 0.0000-1.0000 (  2272 PWs)   bands (ev):

    -0.7269   0.6497   5.1866   6.8649

          k = 0.0000-0.5000-0.2500 (  2247 PWs)   bands (ev):

    -5.7697   5.3404   7.0130  10.1461

          k = 0.2500 0.0000 0.5000 (  2247 PWs)   bands (ev):

    -5.7578   5.6083   6.7629   9.8346

          k = 0.2500 0.5000 0.0000 (  2247 PWs)   bands (ev):

    -5.7689   4.5328   7.2880  11.0861

          k = 0.8750 0.3750 0.6250 (  2254 PWs)   bands (ev):

    -3.8174   2.1180   6.7591   8.5078

          k =-0.8750 0.3750-0.6250 (  2254 PWs)   bands (ev):

    -3.8771   3.2850   5.0067   9.1936

          k =-0.6250 0.8750-0.3750 (  2254 PWs)   bands (ev):

    -3.8582   3.1102   5.5066   8.6111

          k =-0.6250-0.8750 0.3750 (  2254 PWs)   bands (ev):

    -3.8047   2.2890   6.1521   8.7808

          k =-0.6250-0.3750-0.8750 (  2254 PWs)   bands (ev):

    -3.7993   1.9816   6.0018   9.5987

          k = 0.7500 0.2500 0.5000 (  2250 PWs)   bands (ev):

    -1.7115  -0.4754   7.1930   7.3612

          k =-0.7500 0.2500-0.5000 (  2250 PWs)   bands (ev):

    -2.3072   1.1120   4.8321   8.8035

          k =-0.5000-0.7500 0.2500 (  2250 PWs)   bands (ev):

    -1.6885  -0.4381   5.8576   8.6632

          k = 1.0000 0.2500 0.7500 (  2236 PWs)   bands (ev):

    -3.1929   3.0449   5.6509   7.1097

          k =-0.7500 1.0000-0.2500 (  2236 PWs)   bands (ev):

    -3.1629   3.6249   4.8586   6.9844

          k =-0.7500-0.2500-1.0000 (  2236 PWs)   bands (ev):

    -3.1454   2.4756   5.7604   7.6534

          k = 0.8750 0.1250 0.6250 (  2244 PWs)   bands (ev):

    -0.9786   0.6936   5.0443   6.1017

          k =-0.8750 0.1250-0.6250 (  2244 PWs)   bands (ev):

    -1.3154   1.9849   3.4003   6.8034

          k =-0.6250 0.8750-0.1250 (  2244 PWs)   bands (ev):

    -1.3359   2.0168   4.5833   5.2981

          k =-0.6250-0.8750 0.1250 (  2244 PWs)   bands (ev):

    -0.9784   1.1323   3.6114   6.9736

          k =-0.6250-0.1250-0.8750 (  2244 PWs)   bands (ev):

    -0.8665   0.6052   4.3770   6.7552

          k = 0.7500 0.0000 0.5000 (  2256 PWs)   bands (ev):

    -1.8908   1.9149   3.8402   7.3676

          k =-0.5000 0.7500 0.0000 (  2256 PWs)   bands (ev):

    -2.0619   3.1990   3.9950   5.7148

          k =-0.5000-0.7500 0.0000 (  2256 PWs)   bands (ev):

    -1.6784   1.2431   3.7177   7.9931

          k = 0.0000 1.0000-0.2500 (  2240 PWs)   bands (ev):

     0.0302   0.0302   5.5003   5.5003

          k = 0.2500 0.0000-1.0000 (  2240 PWs)   bands (ev):

    -0.4692   1.0525   4.2154   5.9581

          k = 0.0000 1.0000-0.5000 (  2244 PWs)   bands (ev):

     0.4007   0.4007   4.5710   4.5710

!    total energy              =     -35.58341629 Ry
     Harris-Foulkes estimate   =     -35.58341642 Ry
     estimated scf accuracy    <       0.00000034 Ry

     total all-electron energy =      -151.142413 Ry

     The total energy is the sum of the following terms:

     one-electron contribution =       7.86064312 Ry
     hartree contribution      =       1.99961029 Ry
     xc contribution           =      -8.30437423 Ry
     ewald contribution        =     -25.06964389 Ry
     one-center paw contrib.   =     -12.06965157 Ry

     convergence has been achieved in   5 iterations

     Forces acting on atoms (Ry/au):

     atom    1 type  1   force =     0.00000000    0.00000000   -0.21620104
     atom    2 type  1   force =     0.00000000    0.00000000    0.21620104

     Total force =     0.305754     Total SCF correction =     0.000119

     Writing output data file diamond.save

     init_run     :      4.33s CPU      4.29s WALL (       1 calls)
     electrons    :     41.33s CPU     39.66s WALL (       1 calls)
     forces       :      0.69s CPU      0.55s WALL (       1 calls)

     Called by init_run:
     wfcinit      :      3.52s CPU      3.42s WALL (       1 calls)
     potinit      :      0.05s CPU      0.06s WALL (       1 calls)

     Called by electrons:
     c_bands      :     35.03s CPU     33.43s WALL (       6 calls)
     sum_band     :      5.82s CPU      5.66s WALL (       6 calls)
     v_of_rho     :      0.09s CPU      0.09s WALL (       6 calls)
     newd         :      0.20s CPU      0.22s WALL (       6 calls)
     mix_rho      :      0.07s CPU      0.07s WALL (       6 calls)

     Called by c_bands:
     init_us_2    :      1.65s CPU      1.73s WALL (    1330 calls)
     cegterg      :     33.26s CPU     30.20s WALL (     570 calls)

     Called by *egterg:
     h_psi        :     29.69s CPU     28.58s WALL (    2149 calls)
     s_psi        :      1.89s CPU      1.14s WALL (    2149 calls)
     g_psi        :      0.14s CPU      0.17s WALL (    1484 calls)
     cdiaghg      :      0.35s CPU      0.40s WALL (    1959 calls)

     Called by h_psi:
     add_vuspsi   :      1.95s CPU      1.15s WALL (    2149 calls)

     General routines
     calbec       :      3.09s CPU      1.73s WALL (    2814 calls)
     fft          :      0.10s CPU      0.10s WALL (      42 calls)
     fftw         :     25.61s CPU     26.22s WALL (   17288 calls)
     davcio       :      0.26s CPU      1.59s WALL (    1900 calls)


     PAW routines
     PAW_pot      :      0.16s CPU      0.17s WALL (       6 calls)
     PAW_ddot     :      0.06s CPU      0.04s WALL (      22 calls)
     PAW_symme    :      0.00s CPU      0.00s WALL (      12 calls)

     PWSCF        :    46.83s CPU        45.09s WALL


   This run was terminated on:  21:51:54  26Mar2012            

=------------------------------------------------------------------------------=
   JOB DONE.
=------------------------------------------------------------------------------=
