
     Program PWSCF v.4.3.2      starts on 26Mar2012 at 21:47:26 

     This program is part of the open-source Quantum ESPRESSO suite
     for quantum simulation of materials; please cite
         "P. Giannozzi et al., J. Phys.:Condens. Matter 21 395502 (2009);
          URL http://www.quantum-espresso.org", 
     in publications or presentations arising from this work. More details at
     http://www.quantum-espresso.org/wiki/index.php/Citing_Quantum-ESPRESSO

     Current dimensions of program PWSCF are:
     Max number of different atomic species (ntypx) = 10
     Max number of k-points (npk) =  40000
     Max angular momentum in pseudopotentials (lmaxx) =  3
     Waiting for input...
     Reading input from stdin

     G-vector sticks info
     --------------------
     sticks:   dense  smooth     PW     G-vecs:    dense   smooth      PW
     Sum         889     889    265                17477    17477    2891



     bravais-lattice index     =            2
     lattice parameter (alat)  =       6.8000  a.u.
     unit-cell volume          =      78.6080 (a.u.)^3
     number of atoms/cell      =            2
     number of atomic types    =            1
     number of electrons       =         8.00
     number of Kohn-Sham states=            4
     kinetic-energy cutoff     =     140.0000  Ry
     charge density cutoff     =     560.0000  Ry
     convergence threshold     =      1.0E-06
     mixing beta               =       0.7000
     number of iterations used =            8  plain     mixing
     Exchange-correlation      =  SLA  PZ   NOGX NOGC ( 1 1 0 0 0)
     EXX-fraction              =        0.00

     celldm(1)=   6.800000  celldm(2)=   0.000000  celldm(3)=   0.000000
     celldm(4)=   0.000000  celldm(5)=   0.000000  celldm(6)=   0.000000

     crystal axes: (cart. coord. in units of alat)
               a(1) = (  -0.500000   0.000000   0.500000 )  
               a(2) = (   0.000000   0.500000   0.500000 )  
               a(3) = (  -0.500000   0.500000   0.000000 )  

     reciprocal axes: (cart. coord. in units 2 pi/alat)
               b(1) = ( -1.000000 -1.000000  1.000000 )  
               b(2) = (  1.000000  1.000000  1.000000 )  
               b(3) = ( -1.000000  1.000000 -1.000000 )  


     PseudoPot. # 1 for  C read from file:
     /home/mullspace/Documents/espresso-4.3.2/pseudo/C.pz-kjpaw.UPF
     MD5 check sum: 414e6e825ae75add557e798061b49a04
     Pseudo is Projector augmented-wave + core cor, Zval =  4.0
     Generated using "atomic" code by A. Dal Corso (espresso distribution)
     Shape of augmentation charge: BESSEL
     Using radial grid of 1073 points,  4 beta functions with: 
                l(1) =   0
                l(2) =   0
                l(3) =   1
                l(4) =   1
     Q(r) pseudized with 0 coefficients 


     atomic species   valence    mass     pseudopotential
        C              4.00    12.01070      C( 1.00)

      8 Sym.Ops. (with inversion)


   Cartesian axes

     site n.     atom                  positions (alat units)
         1           C   tau(   1) = (   0.0000000   0.0000000   0.0500000  )
         2           C   tau(   2) = (   0.2500000   0.2500000   0.2500000  )

     number of k points=    95
                       cart. coord. in units 2pi/alat
        k(    1) = (   0.0000000   0.0000000   0.0000000), wk =   0.0039063
        k(    2) = (  -0.1250000   0.1250000  -0.1250000), wk =   0.0156250
        k(    3) = (  -0.2500000   0.2500000  -0.2500000), wk =   0.0156250
        k(    4) = (  -0.3750000   0.3750000  -0.3750000), wk =   0.0156250
        k(    5) = (   0.5000000  -0.5000000   0.5000000), wk =   0.0078125
        k(    6) = (   0.0000000   0.2500000   0.0000000), wk =   0.0156250
        k(    7) = (  -0.1250000   0.3750000  -0.1250000), wk =   0.0312500
        k(    8) = (  -0.2500000   0.5000000  -0.2500000), wk =   0.0312500
        k(    9) = (   0.6250000  -0.3750000   0.6250000), wk =   0.0312500
        k(   10) = (   0.5000000  -0.2500000   0.5000000), wk =   0.0312500
        k(   11) = (   0.3750000  -0.1250000   0.3750000), wk =   0.0312500
        k(   12) = (   0.2500000   0.0000000   0.2500000), wk =   0.0312500
        k(   13) = (   0.0000000   0.5000000   0.0000000), wk =   0.0156250
        k(   14) = (  -0.1250000   0.6250000  -0.1250000), wk =   0.0312500
        k(   15) = (   0.7500000  -0.2500000   0.7500000), wk =   0.0312500
        k(   16) = (   0.6250000  -0.1250000   0.6250000), wk =   0.0312500
        k(   17) = (   0.5000000   0.0000000   0.5000000), wk =   0.0312500
        k(   18) = (   0.0000000   0.7500000   0.0000000), wk =   0.0156250
        k(   19) = (   0.8750000  -0.1250000   0.8750000), wk =   0.0312500
        k(   20) = (   0.7500000   0.0000000   0.7500000), wk =   0.0312500
        k(   21) = (   0.0000000  -1.0000000   0.0000000), wk =   0.0078125
        k(   22) = (  -0.2500000   0.5000000   0.0000000), wk =   0.0156250
        k(   23) = (   0.6250000  -0.3750000   0.8750000), wk =   0.0312500
        k(   24) = (   0.5000000  -0.2500000   0.7500000), wk =   0.0312500
        k(   25) = (   0.7500000  -0.2500000   1.0000000), wk =   0.0156250
        k(   26) = (   0.6250000  -0.1250000   0.8750000), wk =   0.0312500
        k(   27) = (   0.5000000   0.0000000   0.7500000), wk =   0.0312500
        k(   28) = (  -0.2500000  -1.0000000   0.0000000), wk =   0.0156250
        k(   29) = (  -0.5000000  -1.0000000   0.0000000), wk =   0.0156250
        k(   30) = (  -0.1250000  -0.1250000  -0.1250000), wk =   0.0156250
        k(   31) = (  -0.2500000  -0.2500000  -0.2500000), wk =   0.0156250
        k(   32) = (  -0.3750000  -0.3750000  -0.3750000), wk =   0.0156250
        k(   33) = (   0.5000000   0.5000000   0.5000000), wk =   0.0078125
        k(   34) = (   0.0000000   0.0000000   0.2500000), wk =   0.0078125
        k(   35) = (  -0.1250000  -0.3750000  -0.1250000), wk =   0.0312500
        k(   36) = (   0.1250000  -0.1250000   0.3750000), wk =   0.0156250
        k(   37) = (   0.1250000   0.1250000  -0.3750000), wk =   0.0156250
        k(   38) = (  -0.2500000  -0.5000000  -0.2500000), wk =   0.0312500
        k(   39) = (   0.2500000  -0.2500000   0.5000000), wk =   0.0156250
        k(   40) = (   0.2500000   0.2500000  -0.5000000), wk =   0.0156250
        k(   41) = (   0.6250000   0.3750000   0.6250000), wk =   0.0312500
        k(   42) = (  -0.6250000   0.6250000  -0.3750000), wk =   0.0156250
        k(   43) = (  -0.6250000  -0.6250000   0.3750000), wk =   0.0156250
        k(   44) = (   0.5000000   0.2500000   0.5000000), wk =   0.0312500
        k(   45) = (  -0.5000000   0.5000000  -0.2500000), wk =   0.0156250
        k(   46) = (  -0.5000000  -0.5000000   0.2500000), wk =   0.0156250
        k(   47) = (   0.3750000   0.1250000   0.3750000), wk =   0.0312500
        k(   48) = (  -0.3750000   0.3750000  -0.1250000), wk =   0.0156250
        k(   49) = (  -0.3750000  -0.3750000   0.1250000), wk =   0.0156250
        k(   50) = (  -0.2500000   0.2500000   0.0000000), wk =   0.0078125
        k(   51) = (  -0.2500000  -0.2500000   0.0000000), wk =   0.0078125
        k(   52) = (   0.0000000   0.0000000   0.5000000), wk =   0.0078125
        k(   53) = (  -0.1250000  -0.6250000  -0.1250000), wk =   0.0312500
        k(   54) = (   0.1250000  -0.1250000   0.6250000), wk =   0.0156250
        k(   55) = (   0.1250000   0.1250000  -0.6250000), wk =   0.0156250
        k(   56) = (   0.7500000   0.2500000   0.7500000), wk =   0.0312500
        k(   57) = (  -0.7500000   0.7500000  -0.2500000), wk =   0.0156250
        k(   58) = (  -0.7500000  -0.7500000   0.2500000), wk =   0.0156250
        k(   59) = (   0.6250000   0.1250000   0.6250000), wk =   0.0312500
        k(   60) = (  -0.6250000   0.6250000  -0.1250000), wk =   0.0156250
        k(   61) = (  -0.6250000  -0.6250000   0.1250000), wk =   0.0156250
        k(   62) = (  -0.5000000   0.5000000   0.0000000), wk =   0.0078125
        k(   63) = (  -0.5000000  -0.5000000   0.0000000), wk =   0.0078125
        k(   64) = (   0.0000000   0.0000000   0.7500000), wk =   0.0078125
        k(   65) = (   0.8750000   0.1250000   0.8750000), wk =   0.0312500
        k(   66) = (  -0.8750000   0.8750000  -0.1250000), wk =   0.0156250
        k(   67) = (  -0.8750000  -0.8750000   0.1250000), wk =   0.0156250
        k(   68) = (  -0.7500000   0.7500000   0.0000000), wk =   0.0078125
        k(   69) = (  -0.7500000  -0.7500000   0.0000000), wk =   0.0078125
        k(   70) = (   0.0000000   0.0000000  -1.0000000), wk =   0.0039063
        k(   71) = (   0.0000000  -0.5000000  -0.2500000), wk =   0.0312500
        k(   72) = (   0.2500000   0.0000000   0.5000000), wk =   0.0312500
        k(   73) = (   0.2500000   0.5000000   0.0000000), wk =   0.0156250
        k(   74) = (   0.8750000   0.3750000   0.6250000), wk =   0.0312500
        k(   75) = (  -0.8750000   0.3750000  -0.6250000), wk =   0.0312500
        k(   76) = (  -0.6250000   0.8750000  -0.3750000), wk =   0.0312500
        k(   77) = (  -0.6250000  -0.8750000   0.3750000), wk =   0.0312500
        k(   78) = (  -0.6250000  -0.3750000  -0.8750000), wk =   0.0312500
        k(   79) = (   0.7500000   0.2500000   0.5000000), wk =   0.0156250
        k(   80) = (  -0.7500000   0.2500000  -0.5000000), wk =   0.0156250
        k(   81) = (  -0.5000000  -0.7500000   0.2500000), wk =   0.0312500
        k(   82) = (   1.0000000   0.2500000   0.7500000), wk =   0.0312500
        k(   83) = (  -0.7500000   1.0000000  -0.2500000), wk =   0.0312500
        k(   84) = (  -0.7500000  -0.2500000  -1.0000000), wk =   0.0156250
        k(   85) = (   0.8750000   0.1250000   0.6250000), wk =   0.0312500
        k(   86) = (  -0.8750000   0.1250000  -0.6250000), wk =   0.0312500
        k(   87) = (  -0.6250000   0.8750000  -0.1250000), wk =   0.0312500
        k(   88) = (  -0.6250000  -0.8750000   0.1250000), wk =   0.0312500
        k(   89) = (  -0.6250000  -0.1250000  -0.8750000), wk =   0.0312500
        k(   90) = (   0.7500000   0.0000000   0.5000000), wk =   0.0312500
        k(   91) = (  -0.5000000   0.7500000   0.0000000), wk =   0.0156250
        k(   92) = (  -0.5000000  -0.7500000   0.0000000), wk =   0.0156250
        k(   93) = (   0.0000000   1.0000000  -0.2500000), wk =   0.0156250
        k(   94) = (   0.2500000   0.0000000  -1.0000000), wk =   0.0156250
        k(   95) = (   0.0000000   1.0000000  -0.5000000), wk =   0.0078125

     Dense  grid:    17477 G-vectors     FFT dimensions: (  40,  40,  40)

     Largest allocated arrays     est. size (Mb)     dimensions
        Kohn-Sham Wavefunctions         0.14 Mb     (   2216,    4)
        NL pseudopotentials             0.54 Mb     (   2216,   16)
        Each V/rho on FFT grid          0.98 Mb     (  64000)
        Each G-vector array             0.13 Mb     (  17477)
        G-vector shells                 0.00 Mb     (    220)
     Largest temporary arrays     est. size (Mb)     dimensions
        Auxiliary wavefunctions         0.54 Mb     (   2216,   16)
        Each subspace H/S matrix        0.00 Mb     (  16,  16)
        Each <psi_i|beta_j> matrix      0.00 Mb     (     16,    4)
        Arrays for rho mixing           7.81 Mb     (  64000,   8)

     Initial potential from superposition of free atoms

     starting charge    7.99993, renormalised to    8.00000
     Starting wfc are    8 atomic wfcs

     total cpu time spent up to now is        4.9 secs

     per-process dynamical memory:    12.3 Mb

     Self-consistent Calculation

     iteration #  1     ecut=   140.00 Ry     beta=0.70
     Davidson diagonalization with overlap
     ethr =  1.00E-02,  avg # of iterations =  2.7

     total cpu time spent up to now is       10.7 secs

     total energy              =     -35.55318504 Ry
     Harris-Foulkes estimate   =     -35.59884200 Ry
     estimated scf accuracy    <       0.08510912 Ry

     iteration #  2     ecut=   140.00 Ry     beta=0.70
     Davidson diagonalization with overlap
     ethr =  1.06E-03,  avg # of iterations =  2.9

     total cpu time spent up to now is       17.4 secs

     total energy              =     -35.58220732 Ry
     Harris-Foulkes estimate   =     -35.58709743 Ry
     estimated scf accuracy    <       0.00930482 Ry

     iteration #  3     ecut=   140.00 Ry     beta=0.70
     Davidson diagonalization with overlap
     ethr =  1.16E-04,  avg # of iterations =  2.7

     total cpu time spent up to now is       23.6 secs

     total energy              =     -35.58508019 Ry
     Harris-Foulkes estimate   =     -35.58565462 Ry
     estimated scf accuracy    <       0.00089785 Ry

     iteration #  4     ecut=   140.00 Ry     beta=0.70
     Davidson diagonalization with overlap
     ethr =  1.12E-05,  avg # of iterations =  3.0

     total cpu time spent up to now is       30.7 secs

     total energy              =     -35.58539505 Ry
     Harris-Foulkes estimate   =     -35.58539503 Ry
     estimated scf accuracy    <       0.00001595 Ry

     iteration #  5     ecut=   140.00 Ry     beta=0.70
     Davidson diagonalization with overlap
     ethr =  1.99E-07,  avg # of iterations =  3.5

     total cpu time spent up to now is       38.2 secs

     total energy              =     -35.58540605 Ry
     Harris-Foulkes estimate   =     -35.58541273 Ry
     estimated scf accuracy    <       0.00000990 Ry

     iteration #  6     ecut=   140.00 Ry     beta=0.70
     Davidson diagonalization with overlap
     ethr =  1.24E-07,  avg # of iterations =  2.2

     total cpu time spent up to now is       43.6 secs

     End of self-consistent calculation

          k = 0.0000 0.0000 0.0000 (  2133 PWs)   bands (ev):

    -8.3878   9.9653  13.0571  15.2791

          k =-0.1250 0.1250-0.1250 (  2175 PWs)   bands (ev):

    -7.9654   9.6185  10.8562  13.4596

          k =-0.2500 0.2500-0.2500 (  2190 PWs)   bands (ev):

    -6.7158   6.6348   8.9132  12.3080

          k =-0.3750 0.3750-0.3750 (  2202 PWs)   bands (ev):

    -4.7376   2.6006   8.3334  11.6250

          k = 0.5000-0.5000 0.5000 (  2186 PWs)   bands (ev):

    -3.0167   0.1634   8.1195  11.3998

          k = 0.0000 0.2500 0.0000 (  2173 PWs)   bands (ev):

    -7.8281   8.8901  11.2036  13.1534

          k =-0.1250 0.3750-0.1250 (  2197 PWs)   bands (ev):

    -6.8546   8.2345   8.3944  11.2008

          k =-0.2500 0.5000-0.2500 (  2185 PWs)   bands (ev):

    -5.1085   4.1955   7.6717  10.4201

          k = 0.6250-0.3750 0.6250 (  2202 PWs)   bands (ev):

    -3.0017   0.9250   7.1223  10.2725

          k = 0.5000-0.2500 0.5000 (  2201 PWs)   bands (ev):

    -3.6465   1.7820   6.9156  10.7454

          k = 0.3750-0.1250 0.3750 (  2187 PWs)   bands (ev):

    -5.7638   5.4364   7.1711  11.6541

          k = 0.2500 0.0000 0.2500 (  2183 PWs)   bands (ev):

    -7.2688   7.7987   9.5126  12.6219

          k = 0.0000 0.5000 0.0000 (  2181 PWs)   bands (ev):

    -6.1706   6.6589   8.8095  10.0620

          k =-0.1250 0.6250-0.1250 (  2202 PWs)   bands (ev):

    -4.6953   5.7027   6.3570   8.6185

          k = 0.7500-0.2500 0.7500 (  2200 PWs)   bands (ev):

    -2.6499   2.7529   4.9462   8.4417

          k = 0.6250-0.1250 0.6250 (  2201 PWs)   bands (ev):

    -2.0285   1.9159   4.2230   8.9988

          k = 0.5000 0.0000 0.5000 (  2209 PWs)   bands (ev):

    -4.0465   3.8409   5.1378  10.0598

          k = 0.0000 0.7500 0.0000 (  2193 PWs)   bands (ev):

    -3.4979   3.6785   7.2218   7.6006

          k = 0.8750-0.1250 0.8750 (  2193 PWs)   bands (ev):

    -1.6725   2.1521   5.4056   7.1735

          k = 0.7500 0.0000 0.7500 (  2201 PWs)   bands (ev):

    -0.2738   1.0062   3.6727   7.6728

          k = 0.0000-1.0000 0.0000 (  2200 PWs)   bands (ev):

    -0.0278  -0.0278   6.7379   6.7379

          k =-0.2500 0.5000 0.0000 (  2194 PWs)   bands (ev):

    -5.6313   7.2409   7.6289   7.9529

          k = 0.6250-0.3750 0.8750 (  2200 PWs)   bands (ev):

    -3.7147   3.6146   6.8595   7.3620

          k = 0.5000-0.2500 0.7500 (  2216 PWs)   bands (ev):

    -2.0698   1.2260   6.0854   7.8291

          k = 0.7500-0.2500 1.0000 (  2203 PWs)   bands (ev):

    -3.0465   4.3843   5.8775   6.1258

          k = 0.6250-0.1250 0.8750 (  2210 PWs)   bands (ev):

    -1.1369   2.5166   3.8623   6.4020

          k = 0.5000 0.0000 0.7500 (  2211 PWs)   bands (ev):

    -1.6561   2.3868   3.8017   7.5310

          k =-0.2500-1.0000 0.0000 (  2206 PWs)   bands (ev):

     0.0790   0.5211   5.5007   5.8695

          k =-0.5000-1.0000 0.0000 (  2208 PWs)   bands (ev):

     0.2110   1.5520   3.7740   5.2038

          k =-0.1250-0.1250-0.1250 (  2175 PWs)   bands (ev):

    -7.9684   8.6141  11.8884  13.7744

          k =-0.2500-0.2500-0.2500 (  2190 PWs)   bands (ev):

    -6.7208   5.3585  10.3202  12.4232

          k =-0.3750-0.3750-0.3750 (  2202 PWs)   bands (ev):

    -4.6891   1.6583   9.3585  11.6081

          k = 0.5000 0.5000 0.5000 (  2186 PWs)   bands (ev):

    -2.4511  -1.1923   9.0381  11.3397

          k = 0.0000 0.0000 0.2500 (  2173 PWs)   bands (ev):

    -7.8243   8.9934  11.6193  12.1091

          k =-0.1250-0.3750-0.1250 (  2197 PWs)   bands (ev):

    -6.8598   6.4459   9.7188  12.2639

          k = 0.1250-0.1250 0.3750 (  2197 PWs)   bands (ev):

    -6.8486   8.0415   8.1774  11.6452

          k = 0.1250 0.1250-0.3750 (  2197 PWs)   bands (ev):

    -6.8499   6.7567  10.1722  10.8245

          k =-0.2500-0.5000-0.2500 (  2185 PWs)   bands (ev):

    -5.0903   3.0464   8.6894  10.9055

          k = 0.2500-0.2500 0.5000 (  2185 PWs)   bands (ev):

    -5.0963   4.0567   7.6546  10.6033

          k = 0.2500 0.2500-0.5000 (  2185 PWs)   bands (ev):

    -5.0785   3.1765   8.8376  10.2190

          k = 0.6250 0.3750 0.6250 (  2202 PWs)   bands (ev):

    -2.6673  -0.2727   8.2731  10.1030

          k =-0.6250 0.6250-0.3750 (  2202 PWs)   bands (ev):

    -2.9849   0.8705   7.6173   9.6237

          k =-0.6250-0.6250 0.3750 (  2202 PWs)   bands (ev):

    -2.6644  -0.2353   7.9065  10.3446

          k = 0.5000 0.2500 0.5000 (  2201 PWs)   bands (ev):

    -3.5165   0.8044   8.2340  10.2166

          k =-0.5000 0.5000-0.2500 (  2201 PWs)   bands (ev):

    -3.6613   1.8374   8.0599   9.0909

          k =-0.5000-0.5000 0.2500 (  2201 PWs)   bands (ev):

    -3.5160   0.7641   7.5907  11.1571

          k = 0.3750 0.1250 0.3750 (  2187 PWs)   bands (ev):

    -5.7600   4.3719   8.6010  11.1878

          k =-0.3750 0.3750-0.1250 (  2187 PWs)   bands (ev):

    -5.7691   5.5871   8.8180   9.1769

          k =-0.3750-0.3750 0.1250 (  2187 PWs)   bands (ev):

    -5.7692   4.1536   8.0991  12.5292

          k =-0.2500 0.2500 0.0000 (  2183 PWs)   bands (ev):

    -7.2680   9.4315   9.5183  10.3049

          k =-0.2500-0.2500 0.0000 (  2183 PWs)   bands (ev):

    -7.2772   6.9554   9.8513  14.0782

          k = 0.0000 0.0000 0.5000 (  2181 PWs)   bands (ev):

    -6.1542   7.2393   8.3728   9.4050

          k =-0.1250-0.6250-0.1250 (  2202 PWs)   bands (ev):

    -4.6846   4.2318   7.7051   9.0273

          k = 0.1250-0.1250 0.6250 (  2202 PWs)   bands (ev):

    -4.6678   5.4653   6.6382   8.3096

          k = 0.1250 0.1250-0.6250 (  2202 PWs)   bands (ev):

    -4.6614   4.8987   6.8641   8.6609

          k = 0.7500 0.2500 0.7500 (  2200 PWs)   bands (ev):

    -2.4778   1.3661   6.4849   8.2603

          k =-0.7500 0.7500-0.2500 (  2200 PWs)   bands (ev):

    -2.6064   2.4422   6.5934   6.7525

          k =-0.7500-0.7500 0.2500 (  2200 PWs)   bands (ev):

    -2.4674   1.6611   5.5068   8.7073

          k = 0.6250 0.1250 0.6250 (  2201 PWs)   bands (ev):

    -1.7404   0.6664   5.4233   8.7715

          k =-0.6250 0.6250-0.1250 (  2201 PWs)   bands (ev):

    -2.0873   1.9774   5.6213   7.1097

          k =-0.6250-0.6250 0.1250 (  2201 PWs)   bands (ev):

    -1.6574   0.5789   4.7386   9.5316

          k =-0.5000 0.5000 0.0000 (  2209 PWs)   bands (ev):

    -4.0860   5.2156   5.2266   8.0017

          k =-0.5000-0.5000 0.0000 (  2209 PWs)   bands (ev):

    -4.0292   2.9961   5.3780  10.9907

          k = 0.0000 0.0000 0.7500 (  2193 PWs)   bands (ev):

    -3.4597   4.3643   5.9086   7.7019

          k = 0.8750 0.1250 0.8750 (  2193 PWs)   bands (ev):

    -1.5733   1.6449   5.9411   7.1265

          k =-0.8750 0.8750-0.1250 (  2193 PWs)   bands (ev):

    -1.6234   2.3840   5.7459   6.1573

          k =-0.8750-0.8750 0.1250 (  2193 PWs)   bands (ev):

    -1.5708   2.3783   4.4210   7.5341

          k =-0.7500 0.7500 0.0000 (  2201 PWs)   bands (ev):

    -0.6593   1.9651   4.1304   6.1958

          k =-0.7500-0.7500 0.0000 (  2201 PWs)   bands (ev):

     0.4128   0.5316   2.8363   8.1793

          k = 0.0000 0.0000-1.0000 (  2200 PWs)   bands (ev):

    -0.4665   0.8515   5.4314   7.1225

          k = 0.0000-0.5000-0.2500 (  2194 PWs)   bands (ev):

    -5.6283   5.6372   7.2904  10.4752

          k = 0.2500 0.0000 0.5000 (  2194 PWs)   bands (ev):

    -5.6157   5.8931   7.0503  10.1638

          k = 0.2500 0.5000 0.0000 (  2194 PWs)   bands (ev):

    -5.6315   4.8357   7.5573  11.4295

          k = 0.8750 0.3750 0.6250 (  2200 PWs)   bands (ev):

    -3.6444   2.3665   7.0313   8.8083

          k =-0.8750 0.3750-0.6250 (  2200 PWs)   bands (ev):

    -3.6964   3.5167   5.2823   9.4953

          k =-0.6250 0.8750-0.3750 (  2200 PWs)   bands (ev):

    -3.6767   3.3446   5.7738   8.9160

          k =-0.6250-0.8750 0.3750 (  2200 PWs)   bands (ev):

    -3.6297   2.5270   6.4370   9.0770

          k =-0.6250-0.3750-0.8750 (  2200 PWs)   bands (ev):

    -3.6323   2.2418   6.2641   9.9076

          k = 0.7500 0.2500 0.5000 (  2216 PWs)   bands (ev):

    -1.4832  -0.2893   7.4658   7.6489

          k =-0.7500 0.2500-0.5000 (  2216 PWs)   bands (ev):

    -2.0711   1.2742   5.1127   9.0934

          k =-0.5000-0.7500 0.2500 (  2216 PWs)   bands (ev):

    -1.4627  -0.2522   6.1346   8.9515

          k = 1.0000 0.2500 0.7500 (  2203 PWs)   bands (ev):

    -3.0074   3.3328   5.8955   7.3683

          k =-0.7500 1.0000-0.2500 (  2203 PWs)   bands (ev):

    -2.9739   3.9120   5.0997   7.2401

          k =-0.7500-0.2500-1.0000 (  2203 PWs)   bands (ev):

    -2.9676   2.7700   6.0026   7.9169

          k = 0.8750 0.1250 0.6250 (  2210 PWs)   bands (ev):

    -0.7502   0.9421   5.2668   6.3490

          k =-0.8750 0.1250-0.6250 (  2210 PWs)   bands (ev):

    -1.0774   2.2512   3.5919   7.0529

          k =-0.6250 0.8750-0.1250 (  2210 PWs)   bands (ev):

    -1.0866   2.2425   4.8186   5.5264

          k =-0.6250-0.8750 0.1250 (  2210 PWs)   bands (ev):

    -0.7436   1.3728   3.8332   7.2253

          k =-0.6250-0.1250-0.8750 (  2210 PWs)   bands (ev):

    -0.6469   0.8639   4.5996   7.0018

          k = 0.7500 0.0000 0.5000 (  2211 PWs)   bands (ev):

    -1.6721   2.1765   4.0449   7.6347

          k =-0.5000 0.7500 0.0000 (  2211 PWs)   bands (ev):

    -1.8290   3.4466   4.1979   5.9745

          k =-0.5000-0.7500 0.0000 (  2211 PWs)   bands (ev):

    -1.4785   1.5233   3.9227   8.2659

          k = 0.0000 1.0000-0.2500 (  2206 PWs)   bands (ev):

     0.2750   0.2750   5.7298   5.7298

          k = 0.2500 0.0000-1.0000 (  2206 PWs)   bands (ev):

    -0.2003   1.2702   4.4412   6.1903

          k = 0.0000 1.0000-0.5000 (  2208 PWs)   bands (ev):

     0.6641   0.6641   4.7725   4.7725

!    total energy              =     -35.58540734 Ry
     Harris-Foulkes estimate   =     -35.58540737 Ry
     estimated scf accuracy    <       0.00000006 Ry

     total all-electron energy =      -151.144404 Ry

     The total energy is the sum of the following terms:

     one-electron contribution =       8.10642579 Ry
     hartree contribution      =       1.97403092 Ry
     xc contribution           =      -8.34071267 Ry
     ewald contribution        =     -25.25397951 Ry
     one-center paw contrib.   =     -12.07117187 Ry

     convergence has been achieved in   6 iterations

     Forces acting on atoms (Ry/au):

     atom    1 type  1   force =     0.00000000    0.00000000   -0.22452990
     atom    2 type  1   force =    -0.00000000   -0.00000000    0.22452990

     Total force =     0.317533     Total SCF correction =     0.000040

     Writing output data file diamond.save

     init_run     :      4.22s CPU      4.69s WALL (       1 calls)
     electrons    :     40.67s CPU     38.63s WALL (       1 calls)
     forces       :      0.70s CPU      0.56s WALL (       1 calls)

     Called by init_run:
     wfcinit      :      3.40s CPU      3.83s WALL (       1 calls)
     potinit      :      0.05s CPU      0.06s WALL (       1 calls)

     Called by electrons:
     c_bands      :     34.40s CPU     32.38s WALL (       6 calls)
     sum_band     :      5.68s CPU      5.53s WALL (       6 calls)
     v_of_rho     :      0.10s CPU      0.11s WALL (       7 calls)
     newd         :      0.24s CPU      0.25s WALL (       7 calls)
     mix_rho      :      0.10s CPU      0.11s WALL (       6 calls)

     Called by c_bands:
     init_us_2    :      1.50s CPU      1.72s WALL (    1330 calls)
     cegterg      :     32.71s CPU     29.72s WALL (     570 calls)

     Called by *egterg:
     h_psi        :     28.95s CPU     27.98s WALL (    2285 calls)
     s_psi        :      1.89s CPU      1.14s WALL (    2285 calls)
     g_psi        :      0.20s CPU      0.17s WALL (    1620 calls)
     cdiaghg      :      0.40s CPU      0.44s WALL (    2190 calls)

     Called by h_psi:
     add_vuspsi   :      2.06s CPU      1.17s WALL (    2285 calls)

     General routines
     calbec       :      2.81s CPU      1.75s WALL (    2950 calls)
     fft          :      0.12s CPU      0.11s WALL (      45 calls)
     fftw         :     24.99s CPU     25.47s WALL (   17436 calls)
     davcio       :      0.19s CPU      1.58s WALL (    1900 calls)


     PAW routines
     PAW_pot      :      0.19s CPU      0.20s WALL (       7 calls)
     PAW_ddot     :      0.06s CPU      0.07s WALL (      36 calls)
     PAW_symme    :      0.00s CPU      0.00s WALL (      13 calls)

     PWSCF        :    46.05s CPU        44.52s WALL


   This run was terminated on:  21:48:11  26Mar2012            

=------------------------------------------------------------------------------=
   JOB DONE.
=------------------------------------------------------------------------------=
