
     Program PWSCF v.4.3.2      starts on 26Mar2012 at 21:52:40 

     This program is part of the open-source Quantum ESPRESSO suite
     for quantum simulation of materials; please cite
         "P. Giannozzi et al., J. Phys.:Condens. Matter 21 395502 (2009);
          URL http://www.quantum-espresso.org", 
     in publications or presentations arising from this work. More details at
     http://www.quantum-espresso.org/wiki/index.php/Citing_Quantum-ESPRESSO

     Current dimensions of program PWSCF are:
     Max number of different atomic species (ntypx) = 10
     Max number of k-points (npk) =  40000
     Max angular momentum in pseudopotentials (lmaxx) =  3
     Waiting for input...
     Reading input from stdin

     G-vector sticks info
     --------------------
     sticks:   dense  smooth     PW     G-vecs:    dense   smooth      PW
     Sum         913     913    271                18149    18149    2975



     bravais-lattice index     =            2
     lattice parameter (alat)  =       6.8700  a.u.
     unit-cell volume          =      81.0607 (a.u.)^3
     number of atoms/cell      =            2
     number of atomic types    =            1
     number of electrons       =         8.00
     number of Kohn-Sham states=            4
     kinetic-energy cutoff     =     140.0000  Ry
     charge density cutoff     =     560.0000  Ry
     convergence threshold     =      1.0E-06
     mixing beta               =       0.7000
     number of iterations used =            8  plain     mixing
     Exchange-correlation      =  SLA  PZ   NOGX NOGC ( 1 1 0 0 0)
     EXX-fraction              =        0.00

     celldm(1)=   6.870000  celldm(2)=   0.000000  celldm(3)=   0.000000
     celldm(4)=   0.000000  celldm(5)=   0.000000  celldm(6)=   0.000000

     crystal axes: (cart. coord. in units of alat)
               a(1) = (  -0.500000   0.000000   0.500000 )  
               a(2) = (   0.000000   0.500000   0.500000 )  
               a(3) = (  -0.500000   0.500000   0.000000 )  

     reciprocal axes: (cart. coord. in units 2 pi/alat)
               b(1) = ( -1.000000 -1.000000  1.000000 )  
               b(2) = (  1.000000  1.000000  1.000000 )  
               b(3) = ( -1.000000  1.000000 -1.000000 )  


     PseudoPot. # 1 for  C read from file:
     /home/mullspace/Documents/espresso-4.3.2/pseudo/C.pz-kjpaw.UPF
     MD5 check sum: 414e6e825ae75add557e798061b49a04
     Pseudo is Projector augmented-wave + core cor, Zval =  4.0
     Generated using "atomic" code by A. Dal Corso (espresso distribution)
     Shape of augmentation charge: BESSEL
     Using radial grid of 1073 points,  4 beta functions with: 
                l(1) =   0
                l(2) =   0
                l(3) =   1
                l(4) =   1
     Q(r) pseudized with 0 coefficients 


     atomic species   valence    mass     pseudopotential
        C              4.00    12.01070      C( 1.00)

      8 Sym.Ops. (with inversion)


   Cartesian axes

     site n.     atom                  positions (alat units)
         1           C   tau(   1) = (   0.0000000   0.0000000   0.0500000  )
         2           C   tau(   2) = (   0.2500000   0.2500000   0.2500000  )

     number of k points=    95
                       cart. coord. in units 2pi/alat
        k(    1) = (   0.0000000   0.0000000   0.0000000), wk =   0.0039063
        k(    2) = (  -0.1250000   0.1250000  -0.1250000), wk =   0.0156250
        k(    3) = (  -0.2500000   0.2500000  -0.2500000), wk =   0.0156250
        k(    4) = (  -0.3750000   0.3750000  -0.3750000), wk =   0.0156250
        k(    5) = (   0.5000000  -0.5000000   0.5000000), wk =   0.0078125
        k(    6) = (   0.0000000   0.2500000   0.0000000), wk =   0.0156250
        k(    7) = (  -0.1250000   0.3750000  -0.1250000), wk =   0.0312500
        k(    8) = (  -0.2500000   0.5000000  -0.2500000), wk =   0.0312500
        k(    9) = (   0.6250000  -0.3750000   0.6250000), wk =   0.0312500
        k(   10) = (   0.5000000  -0.2500000   0.5000000), wk =   0.0312500
        k(   11) = (   0.3750000  -0.1250000   0.3750000), wk =   0.0312500
        k(   12) = (   0.2500000   0.0000000   0.2500000), wk =   0.0312500
        k(   13) = (   0.0000000   0.5000000   0.0000000), wk =   0.0156250
        k(   14) = (  -0.1250000   0.6250000  -0.1250000), wk =   0.0312500
        k(   15) = (   0.7500000  -0.2500000   0.7500000), wk =   0.0312500
        k(   16) = (   0.6250000  -0.1250000   0.6250000), wk =   0.0312500
        k(   17) = (   0.5000000   0.0000000   0.5000000), wk =   0.0312500
        k(   18) = (   0.0000000   0.7500000   0.0000000), wk =   0.0156250
        k(   19) = (   0.8750000  -0.1250000   0.8750000), wk =   0.0312500
        k(   20) = (   0.7500000   0.0000000   0.7500000), wk =   0.0312500
        k(   21) = (   0.0000000  -1.0000000   0.0000000), wk =   0.0078125
        k(   22) = (  -0.2500000   0.5000000   0.0000000), wk =   0.0156250
        k(   23) = (   0.6250000  -0.3750000   0.8750000), wk =   0.0312500
        k(   24) = (   0.5000000  -0.2500000   0.7500000), wk =   0.0312500
        k(   25) = (   0.7500000  -0.2500000   1.0000000), wk =   0.0156250
        k(   26) = (   0.6250000  -0.1250000   0.8750000), wk =   0.0312500
        k(   27) = (   0.5000000   0.0000000   0.7500000), wk =   0.0312500
        k(   28) = (  -0.2500000  -1.0000000   0.0000000), wk =   0.0156250
        k(   29) = (  -0.5000000  -1.0000000   0.0000000), wk =   0.0156250
        k(   30) = (  -0.1250000  -0.1250000  -0.1250000), wk =   0.0156250
        k(   31) = (  -0.2500000  -0.2500000  -0.2500000), wk =   0.0156250
        k(   32) = (  -0.3750000  -0.3750000  -0.3750000), wk =   0.0156250
        k(   33) = (   0.5000000   0.5000000   0.5000000), wk =   0.0078125
        k(   34) = (   0.0000000   0.0000000   0.2500000), wk =   0.0078125
        k(   35) = (  -0.1250000  -0.3750000  -0.1250000), wk =   0.0312500
        k(   36) = (   0.1250000  -0.1250000   0.3750000), wk =   0.0156250
        k(   37) = (   0.1250000   0.1250000  -0.3750000), wk =   0.0156250
        k(   38) = (  -0.2500000  -0.5000000  -0.2500000), wk =   0.0312500
        k(   39) = (   0.2500000  -0.2500000   0.5000000), wk =   0.0156250
        k(   40) = (   0.2500000   0.2500000  -0.5000000), wk =   0.0156250
        k(   41) = (   0.6250000   0.3750000   0.6250000), wk =   0.0312500
        k(   42) = (  -0.6250000   0.6250000  -0.3750000), wk =   0.0156250
        k(   43) = (  -0.6250000  -0.6250000   0.3750000), wk =   0.0156250
        k(   44) = (   0.5000000   0.2500000   0.5000000), wk =   0.0312500
        k(   45) = (  -0.5000000   0.5000000  -0.2500000), wk =   0.0156250
        k(   46) = (  -0.5000000  -0.5000000   0.2500000), wk =   0.0156250
        k(   47) = (   0.3750000   0.1250000   0.3750000), wk =   0.0312500
        k(   48) = (  -0.3750000   0.3750000  -0.1250000), wk =   0.0156250
        k(   49) = (  -0.3750000  -0.3750000   0.1250000), wk =   0.0156250
        k(   50) = (  -0.2500000   0.2500000   0.0000000), wk =   0.0078125
        k(   51) = (  -0.2500000  -0.2500000   0.0000000), wk =   0.0078125
        k(   52) = (   0.0000000   0.0000000   0.5000000), wk =   0.0078125
        k(   53) = (  -0.1250000  -0.6250000  -0.1250000), wk =   0.0312500
        k(   54) = (   0.1250000  -0.1250000   0.6250000), wk =   0.0156250
        k(   55) = (   0.1250000   0.1250000  -0.6250000), wk =   0.0156250
        k(   56) = (   0.7500000   0.2500000   0.7500000), wk =   0.0312500
        k(   57) = (  -0.7500000   0.7500000  -0.2500000), wk =   0.0156250
        k(   58) = (  -0.7500000  -0.7500000   0.2500000), wk =   0.0156250
        k(   59) = (   0.6250000   0.1250000   0.6250000), wk =   0.0312500
        k(   60) = (  -0.6250000   0.6250000  -0.1250000), wk =   0.0156250
        k(   61) = (  -0.6250000  -0.6250000   0.1250000), wk =   0.0156250
        k(   62) = (  -0.5000000   0.5000000   0.0000000), wk =   0.0078125
        k(   63) = (  -0.5000000  -0.5000000   0.0000000), wk =   0.0078125
        k(   64) = (   0.0000000   0.0000000   0.7500000), wk =   0.0078125
        k(   65) = (   0.8750000   0.1250000   0.8750000), wk =   0.0312500
        k(   66) = (  -0.8750000   0.8750000  -0.1250000), wk =   0.0156250
        k(   67) = (  -0.8750000  -0.8750000   0.1250000), wk =   0.0156250
        k(   68) = (  -0.7500000   0.7500000   0.0000000), wk =   0.0078125
        k(   69) = (  -0.7500000  -0.7500000   0.0000000), wk =   0.0078125
        k(   70) = (   0.0000000   0.0000000  -1.0000000), wk =   0.0039063
        k(   71) = (   0.0000000  -0.5000000  -0.2500000), wk =   0.0312500
        k(   72) = (   0.2500000   0.0000000   0.5000000), wk =   0.0312500
        k(   73) = (   0.2500000   0.5000000   0.0000000), wk =   0.0156250
        k(   74) = (   0.8750000   0.3750000   0.6250000), wk =   0.0312500
        k(   75) = (  -0.8750000   0.3750000  -0.6250000), wk =   0.0312500
        k(   76) = (  -0.6250000   0.8750000  -0.3750000), wk =   0.0312500
        k(   77) = (  -0.6250000  -0.8750000   0.3750000), wk =   0.0312500
        k(   78) = (  -0.6250000  -0.3750000  -0.8750000), wk =   0.0312500
        k(   79) = (   0.7500000   0.2500000   0.5000000), wk =   0.0156250
        k(   80) = (  -0.7500000   0.2500000  -0.5000000), wk =   0.0156250
        k(   81) = (  -0.5000000  -0.7500000   0.2500000), wk =   0.0312500
        k(   82) = (   1.0000000   0.2500000   0.7500000), wk =   0.0312500
        k(   83) = (  -0.7500000   1.0000000  -0.2500000), wk =   0.0312500
        k(   84) = (  -0.7500000  -0.2500000  -1.0000000), wk =   0.0156250
        k(   85) = (   0.8750000   0.1250000   0.6250000), wk =   0.0312500
        k(   86) = (  -0.8750000   0.1250000  -0.6250000), wk =   0.0312500
        k(   87) = (  -0.6250000   0.8750000  -0.1250000), wk =   0.0312500
        k(   88) = (  -0.6250000  -0.8750000   0.1250000), wk =   0.0312500
        k(   89) = (  -0.6250000  -0.1250000  -0.8750000), wk =   0.0312500
        k(   90) = (   0.7500000   0.0000000   0.5000000), wk =   0.0312500
        k(   91) = (  -0.5000000   0.7500000   0.0000000), wk =   0.0156250
        k(   92) = (  -0.5000000  -0.7500000   0.0000000), wk =   0.0156250
        k(   93) = (   0.0000000   1.0000000  -0.2500000), wk =   0.0156250
        k(   94) = (   0.2500000   0.0000000  -1.0000000), wk =   0.0156250
        k(   95) = (   0.0000000   1.0000000  -0.5000000), wk =   0.0078125

     Dense  grid:    18149 G-vectors     FFT dimensions: (  40,  40,  40)

     Largest allocated arrays     est. size (Mb)     dimensions
        Kohn-Sham Wavefunctions         0.14 Mb     (   2280,    4)
        NL pseudopotentials             0.56 Mb     (   2280,   16)
        Each V/rho on FFT grid          0.98 Mb     (  64000)
        Each G-vector array             0.14 Mb     (  18149)
        G-vector shells                 0.00 Mb     (    225)
     Largest temporary arrays     est. size (Mb)     dimensions
        Auxiliary wavefunctions         0.56 Mb     (   2280,   16)
        Each subspace H/S matrix        0.00 Mb     (  16,  16)
        Each <psi_i|beta_j> matrix      0.00 Mb     (     16,    4)
        Arrays for rho mixing           7.81 Mb     (  64000,   8)

     Initial potential from superposition of free atoms

     starting charge    7.99993, renormalised to    8.00000
     Starting wfc are    8 atomic wfcs

     total cpu time spent up to now is        4.4 secs

     per-process dynamical memory:    12.5 Mb

     Self-consistent Calculation

     iteration #  1     ecut=   140.00 Ry     beta=0.70
     Davidson diagonalization with overlap
     ethr =  1.00E-02,  avg # of iterations =  2.7

     Threshold (ethr) on eigenvalues was too large:
     Diagonalizing with lowered threshold

     Davidson diagonalization with overlap
     ethr =  9.52E-04,  avg # of iterations =  2.9

     total cpu time spent up to now is       16.5 secs

     total energy              =     -35.57109775 Ry
     Harris-Foulkes estimate   =     -35.63246299 Ry
     estimated scf accuracy    <       0.11425949 Ry

     iteration #  2     ecut=   140.00 Ry     beta=0.70
     Davidson diagonalization with overlap
     ethr =  1.43E-03,  avg # of iterations =  1.0

     total cpu time spent up to now is       21.2 secs

     total energy              =     -35.57390951 Ry
     Harris-Foulkes estimate   =     -35.57650941 Ry
     estimated scf accuracy    <       0.00539159 Ry

     iteration #  3     ecut=   140.00 Ry     beta=0.70
     Davidson diagonalization with overlap
     ethr =  6.74E-05,  avg # of iterations =  3.2

     total cpu time spent up to now is       30.0 secs

     total energy              =     -35.58185900 Ry
     Harris-Foulkes estimate   =     -35.58358208 Ry
     estimated scf accuracy    <       0.00276865 Ry

     iteration #  4     ecut=   140.00 Ry     beta=0.70
     Davidson diagonalization with overlap
     ethr =  3.46E-05,  avg # of iterations =  3.1

     total cpu time spent up to now is       37.0 secs

     total energy              =     -35.58225470 Ry
     Harris-Foulkes estimate   =     -35.58252911 Ry
     estimated scf accuracy    <       0.00046177 Ry

     iteration #  5     ecut=   140.00 Ry     beta=0.70
     Davidson diagonalization with overlap
     ethr =  5.77E-06,  avg # of iterations =  2.7

     total cpu time spent up to now is       43.3 secs

     End of self-consistent calculation

          k = 0.0000 0.0000 0.0000 (  2229 PWs)   bands (ev):

    -8.5253   9.4816  12.5189  14.6995

          k =-0.1250 0.1250-0.1250 (  2250 PWs)   bands (ev):

    -8.1123   9.1463  10.3730  12.9292

          k =-0.2500 0.2500-0.2500 (  2256 PWs)   bands (ev):

    -6.8922   6.2456   8.4627  11.8074

          k =-0.3750 0.3750-0.3750 (  2253 PWs)   bands (ev):

    -4.9697   2.3101   7.8994  11.1407

          k = 0.5000-0.5000 0.5000 (  2276 PWs)   bands (ev):

    -3.3337  -0.0271   7.6912  10.9206

          k = 0.0000 0.2500 0.0000 (  2249 PWs)   bands (ev):

    -7.9774   8.4229  10.7246  12.6191

          k =-0.1250 0.3750-0.1250 (  2250 PWs)   bands (ev):

    -7.0266   7.8014   7.9564  10.7166

          k =-0.2500 0.5000-0.2500 (  2255 PWs)   bands (ev):

    -5.3261   3.8655   7.2392   9.9620

          k = 0.6250-0.3750 0.6250 (  2272 PWs)   bands (ev):

    -3.3029   0.7014   6.7034   9.8218

          k = 0.5000-0.2500 0.5000 (  2266 PWs)   bands (ev):

    -3.9132   1.5179   6.5046  10.2819

          k = 0.3750-0.1250 0.3750 (  2262 PWs)   bands (ev):

    -5.9620   5.0678   6.7592  11.1647

          k = 0.2500 0.0000 0.2500 (  2255 PWs)   bands (ev):

    -7.4303   7.3624   9.0601  12.1077

          k = 0.0000 0.5000 0.0000 (  2269 PWs)   bands (ev):

    -6.3555   6.2169   8.3974   9.5989

          k =-0.1250 0.6250-0.1250 (  2273 PWs)   bands (ev):

    -4.9176   5.2674   6.0014   8.2076

          k = 0.7500-0.2500 0.7500 (  2280 PWs)   bands (ev):

    -2.9388   2.4545   4.5713   8.0418

          k = 0.6250-0.1250 0.6250 (  2277 PWs)   bands (ev):

    -2.3461   1.6486   3.8715   8.5839

          k = 0.5000 0.0000 0.5000 (  2269 PWs)   bands (ev):

    -4.2845   3.4659   4.8015   9.6137

          k = 0.0000 0.7500 0.0000 (  2269 PWs)   bands (ev):

    -3.7426   3.2703   6.8531   7.2226

          k = 0.8750-0.1250 0.8750 (  2274 PWs)   bands (ev):

    -1.9704   1.7826   5.0854   6.8085

          k = 0.7500 0.0000 0.7500 (  2273 PWs)   bands (ev):

    -0.6350   0.6719   3.4181   7.2940

          k = 0.0000-1.0000 0.0000 (  2272 PWs)   bands (ev):

    -0.3538  -0.3538   6.3844   6.3844

          k =-0.2500 0.5000 0.0000 (  2272 PWs)   bands (ev):

    -5.8341   6.8562   7.1981   7.5256

          k = 0.6250-0.3750 0.8750 (  2272 PWs)   bands (ev):

    -3.9736   3.3020   6.4391   6.9804

          k = 0.5000-0.2500 0.7500 (  2270 PWs)   bands (ev):

    -2.4052   0.9998   5.6951   7.4328

          k = 0.7500-0.2500 1.0000 (  2270 PWs)   bands (ev):

    -3.3155   3.9729   5.5376   5.7837

          k = 0.6250-0.1250 0.8750 (  2261 PWs)   bands (ev):

    -1.4798   2.1745   3.5756   6.0538

          k = 0.5000 0.0000 0.7500 (  2274 PWs)   bands (ev):

    -1.9666   2.0300   3.5126   7.1572

          k =-0.2500-1.0000 0.0000 (  2260 PWs)   bands (ev):

    -0.2777   0.1953   5.1742   5.5523

          k =-0.5000-1.0000 0.0000 (  2268 PWs)   bands (ev):

    -0.1787   1.1984   3.5033   4.9191

          k =-0.1250-0.1250-0.1250 (  2250 PWs)   bands (ev):

    -8.1142   8.1560  11.3824  13.2394

          k =-0.2500-0.2500-0.2500 (  2256 PWs)   bands (ev):

    -6.8919   4.9640   9.8535  11.9218

          k =-0.3750-0.3750-0.3750 (  2253 PWs)   bands (ev):

    -4.9041   1.3406   8.9136  11.1254

          k = 0.5000 0.5000 0.5000 (  2276 PWs)   bands (ev):

    -2.7484  -1.4152   8.6001  10.8629

          k = 0.0000 0.0000 0.2500 (  2249 PWs)   bands (ev):

    -7.9738   8.5443  11.0831  11.6212

          k =-0.1250-0.3750-0.1250 (  2250 PWs)   bands (ev):

    -7.0282   6.0180   9.2806  11.7530

          k = 0.1250-0.1250 0.3750 (  2250 PWs)   bands (ev):

    -7.0201   7.6084   7.7540  11.1388

          k = 0.1250 0.1250-0.3750 (  2250 PWs)   bands (ev):

    -7.0199   6.3490   9.6700  10.3696

          k =-0.2500-0.5000-0.2500 (  2255 PWs)   bands (ev):

    -5.2953   2.6890   8.2696  10.4303

          k = 0.2500-0.2500 0.5000 (  2255 PWs)   bands (ev):

    -5.3128   3.7197   7.2451  10.1237

          k = 0.2500 0.2500-0.5000 (  2255 PWs)   bands (ev):

    -5.2869   2.8339   8.3779   9.7781

          k = 0.6250 0.3750 0.6250 (  2272 PWs)   bands (ev):

    -2.9368  -0.5442   7.8541   9.6524

          k =-0.6250 0.6250-0.3750 (  2272 PWs)   bands (ev):

    -3.2867   0.6447   7.2068   9.1719

          k =-0.6250-0.6250 0.3750 (  2272 PWs)   bands (ev):

    -2.9382  -0.4984   7.4787   9.8983

          k = 0.5000 0.2500 0.5000 (  2266 PWs)   bands (ev):

    -3.7623   0.5078   7.8114   9.7656

          k =-0.5000 0.5000-0.2500 (  2266 PWs)   bands (ev):

    -3.9313   1.5767   7.6344   8.6548

          k =-0.5000-0.5000 0.2500 (  2266 PWs)   bands (ev):

    -3.7554   0.4573   7.1825  10.6877

          k = 0.3750 0.1250 0.3750 (  2262 PWs)   bands (ev):

    -5.9533   3.9997   8.1704  10.7107

          k =-0.3750 0.3750-0.1250 (  2262 PWs)   bands (ev):

    -5.9702   5.2268   8.3685   8.7395

          k =-0.3750-0.3750 0.1250 (  2262 PWs)   bands (ev):

    -5.9581   3.7642   7.6962  12.0222

          k =-0.2500 0.2500 0.0000 (  2255 PWs)   bands (ev):

    -7.4315   8.9911   9.0469   9.8376

          k =-0.2500-0.2500 0.0000 (  2255 PWs)   bands (ev):

    -7.4361   6.5108   9.4159  13.5287

          k = 0.0000 0.0000 0.5000 (  2269 PWs)   bands (ev):

    -6.3402   6.8456   7.8767   8.9877

          k =-0.1250-0.6250-0.1250 (  2273 PWs)   bands (ev):

    -4.8994   3.8221   7.3224   8.6058

          k = 0.1250-0.1250 0.6250 (  2273 PWs)   bands (ev):

    -4.8898   5.0573   6.2614   7.9013

          k = 0.1250 0.1250-0.6250 (  2273 PWs)   bands (ev):

    -4.8810   4.5205   6.4367   8.2621

          k = 0.7500 0.2500 0.7500 (  2280 PWs)   bands (ev):

    -2.7422   1.0232   6.1209   7.8643

          k =-0.7500 0.7500-0.2500 (  2280 PWs)   bands (ev):

    -2.8975   2.1375   6.2163   6.3778

          k =-0.7500-0.7500 0.2500 (  2280 PWs)   bands (ev):

    -2.7410   1.3441   5.1263   8.3065

          k = 0.6250 0.1250 0.6250 (  2277 PWs)   bands (ev):

    -2.0418   0.3689   5.0772   8.3612

          k =-0.6250 0.6250-0.1250 (  2277 PWs)   bands (ev):

    -2.4152   1.7207   5.2685   6.7156

          k =-0.6250-0.6250 0.1250 (  2277 PWs)   bands (ev):

    -1.9401   0.2598   4.3978   9.1084

          k =-0.5000 0.5000 0.0000 (  2269 PWs)   bands (ev):

    -4.3347   4.8592   4.8828   7.5789

          k =-0.5000-0.5000 0.0000 (  2269 PWs)   bands (ev):

    -4.2528   2.5961   5.0534  10.5277

          k = 0.0000 0.0000 0.7500 (  2269 PWs)   bands (ev):

    -3.7091   3.9545   5.5533   7.3278

          k = 0.8750 0.1250 0.8750 (  2274 PWs)   bands (ev):

    -1.8576   1.2636   5.6173   6.7634

          k =-0.8750 0.8750-0.1250 (  2274 PWs)   bands (ev):

    -1.9308   2.0296   5.3947   5.8331

          k =-0.8750-0.8750 0.1250 (  2274 PWs)   bands (ev):

    -1.8714   2.0105   4.1087   7.1639

          k =-0.7500 0.7500 0.0000 (  2273 PWs)   bands (ev):

    -1.0417   1.6611   3.8740   5.8305

          k =-0.7500-0.7500 0.0000 (  2273 PWs)   bands (ev):

     0.0401   0.1975   2.5927   7.7922

          k = 0.0000 0.0000-1.0000 (  2272 PWs)   bands (ev):

    -0.8300   0.5691   5.0893   6.7628

          k = 0.0000-0.5000-0.2500 (  2272 PWs)   bands (ev):

    -5.8261   5.2225   6.9031  10.0155

          k = 0.2500 0.0000 0.5000 (  2272 PWs)   bands (ev):

    -5.8144   5.4951   6.6490   9.7042

          k = 0.2500 0.5000 0.0000 (  2272 PWs)   bands (ev):

    -5.8237   4.4127   7.1811  10.9500

          k = 0.8750 0.3750 0.6250 (  2272 PWs)   bands (ev):

    -3.8863   2.0193   6.6512   8.3887

          k =-0.8750 0.3750-0.6250 (  2272 PWs)   bands (ev):

    -3.9491   3.1927   4.8978   9.0738

          k =-0.6250 0.8750-0.3750 (  2272 PWs)   bands (ev):

    -3.9305   3.0171   5.4007   8.4902

          k =-0.6250-0.8750 0.3750 (  2272 PWs)   bands (ev):

    -3.8745   2.1943   6.0393   8.6633

          k =-0.6250-0.3750-0.8750 (  2272 PWs)   bands (ev):

    -3.8659   1.8782   5.8978   9.4763

          k = 0.7500 0.2500 0.5000 (  2270 PWs)   bands (ev):

    -1.8022  -0.5496   7.0848   7.2472

          k =-0.7500 0.2500-0.5000 (  2270 PWs)   bands (ev):

    -2.4007   1.0470   4.7210   8.6883

          k =-0.5000-0.7500 0.2500 (  2270 PWs)   bands (ev):

    -1.7781  -0.5122   5.7480   8.5488

          k = 1.0000 0.2500 0.7500 (  2270 PWs)   bands (ev):

    -3.2668   2.9306   5.5540   7.0069

          k =-0.7500 1.0000-0.2500 (  2270 PWs)   bands (ev):

    -3.2381   3.5109   4.7630   6.8829

          k =-0.7500-0.2500-1.0000 (  2270 PWs)   bands (ev):

    -3.2162   2.3589   5.6642   7.5488

          k = 0.8750 0.1250 0.6250 (  2261 PWs)   bands (ev):

    -1.0695   0.5950   4.9559   6.0036

          k =-0.8750 0.1250-0.6250 (  2261 PWs)   bands (ev):

    -1.4098   1.8788   3.3246   6.7042

          k =-0.6250 0.8750-0.1250 (  2261 PWs)   bands (ev):

    -1.4349   1.9267   4.4900   5.2076

          k =-0.6250-0.8750 0.1250 (  2261 PWs)   bands (ev):

    -1.0718   1.0364   3.5238   6.8737

          k =-0.6250-0.1250-0.8750 (  2261 PWs)   bands (ev):

    -0.9540   0.5026   4.2888   6.6572

          k = 0.7500 0.0000 0.5000 (  2274 PWs)   bands (ev):

    -1.9777   1.8110   3.7591   7.2616

          k =-0.5000 0.7500 0.0000 (  2274 PWs)   bands (ev):

    -2.1545   3.1001   3.9148   5.6118

          k =-0.5000-0.7500 0.0000 (  2274 PWs)   bands (ev):

    -1.7581   1.1321   3.6362   7.8848

          k = 0.0000 1.0000-0.2500 (  2260 PWs)   bands (ev):

    -0.0671  -0.0671   5.4091   5.4091

          k = 0.2500 0.0000-1.0000 (  2260 PWs)   bands (ev):

    -0.5757   0.9655   4.1259   5.8659

          k = 0.0000 1.0000-0.5000 (  2268 PWs)   bands (ev):

     0.2962   0.2962   4.4908   4.4908

!    total energy              =     -35.58234007 Ry
     Harris-Foulkes estimate   =     -35.58234002 Ry
     estimated scf accuracy    <       0.00000034 Ry

     total all-electron energy =      -151.141336 Ry

     The total energy is the sum of the following terms:

     one-electron contribution =       7.76416348 Ry
     hartree contribution      =       2.00891500 Ry
     xc contribution           =      -8.28970082 Ry
     ewald contribution        =     -24.99666094 Ry
     one-center paw contrib.   =     -12.06905679 Ry

     convergence has been achieved in   5 iterations

     Forces acting on atoms (Ry/au):

     atom    1 type  1   force =    -0.00000000   -0.00000000   -0.21290338
     atom    2 type  1   force =     0.00000000    0.00000000    0.21290338

     Total force =     0.301091     Total SCF correction =     0.000111

     Writing output data file diamond.save

     init_run     :      4.28s CPU      4.16s WALL (       1 calls)
     electrons    :     40.65s CPU     38.90s WALL (       1 calls)
     forces       :      0.72s CPU      0.58s WALL (       1 calls)

     Called by init_run:
     wfcinit      :      3.47s CPU      3.30s WALL (       1 calls)
     potinit      :      0.06s CPU      0.06s WALL (       1 calls)

     Called by electrons:
     c_bands      :     34.44s CPU     32.73s WALL (       6 calls)
     sum_band     :      5.74s CPU      5.61s WALL (       6 calls)
     v_of_rho     :      0.09s CPU      0.09s WALL (       6 calls)
     newd         :      0.19s CPU      0.22s WALL (       6 calls)
     mix_rho      :      0.06s CPU      0.07s WALL (       6 calls)

     Called by c_bands:
     init_us_2    :      1.62s CPU      1.73s WALL (    1330 calls)
     cegterg      :     32.67s CPU     29.73s WALL (     570 calls)

     Called by *egterg:
     h_psi        :     29.09s CPU     28.04s WALL (    2147 calls)
     s_psi        :      1.88s CPU      1.11s WALL (    2147 calls)
     g_psi        :      0.16s CPU      0.17s WALL (    1482 calls)
     cdiaghg      :      0.36s CPU      0.40s WALL (    1957 calls)

     Called by h_psi:
     add_vuspsi   :      2.03s CPU      1.17s WALL (    2147 calls)

     General routines
     calbec       :      3.00s CPU      1.76s WALL (    2812 calls)
     fft          :      0.09s CPU      0.10s WALL (      42 calls)
     fftw         :     24.98s CPU     25.68s WALL (   17288 calls)
     davcio       :      0.22s CPU      1.36s WALL (    1900 calls)


     PAW routines
     PAW_pot      :      0.17s CPU      0.17s WALL (       6 calls)
     PAW_ddot     :      0.04s CPU      0.05s WALL (      22 calls)
     PAW_symme    :      0.00s CPU      0.00s WALL (      12 calls)

     PWSCF        :    46.11s CPU        44.27s WALL


   This run was terminated on:  21:53:24  26Mar2012            

=------------------------------------------------------------------------------=
   JOB DONE.
=------------------------------------------------------------------------------=
