
     Program PWSCF v.4.3.2      starts on 26Mar2012 at 21:46:42 

     This program is part of the open-source Quantum ESPRESSO suite
     for quantum simulation of materials; please cite
         "P. Giannozzi et al., J. Phys.:Condens. Matter 21 395502 (2009);
          URL http://www.quantum-espresso.org", 
     in publications or presentations arising from this work. More details at
     http://www.quantum-espresso.org/wiki/index.php/Citing_Quantum-ESPRESSO

     Current dimensions of program PWSCF are:
     Max number of different atomic species (ntypx) = 10
     Max number of k-points (npk) =  40000
     Max angular momentum in pseudopotentials (lmaxx) =  3
     Waiting for input...
     Reading input from stdin

     G-vector sticks info
     --------------------
     sticks:   dense  smooth     PW     G-vecs:    dense   smooth      PW
     Sum         889     889    265                17477    17477    2891



     bravais-lattice index     =            2
     lattice parameter (alat)  =       6.7900  a.u.
     unit-cell volume          =      78.2617 (a.u.)^3
     number of atoms/cell      =            2
     number of atomic types    =            1
     number of electrons       =         8.00
     number of Kohn-Sham states=            4
     kinetic-energy cutoff     =     140.0000  Ry
     charge density cutoff     =     560.0000  Ry
     convergence threshold     =      1.0E-06
     mixing beta               =       0.7000
     number of iterations used =            8  plain     mixing
     Exchange-correlation      =  SLA  PZ   NOGX NOGC ( 1 1 0 0 0)
     EXX-fraction              =        0.00

     celldm(1)=   6.790000  celldm(2)=   0.000000  celldm(3)=   0.000000
     celldm(4)=   0.000000  celldm(5)=   0.000000  celldm(6)=   0.000000

     crystal axes: (cart. coord. in units of alat)
               a(1) = (  -0.500000   0.000000   0.500000 )  
               a(2) = (   0.000000   0.500000   0.500000 )  
               a(3) = (  -0.500000   0.500000   0.000000 )  

     reciprocal axes: (cart. coord. in units 2 pi/alat)
               b(1) = ( -1.000000 -1.000000  1.000000 )  
               b(2) = (  1.000000  1.000000  1.000000 )  
               b(3) = ( -1.000000  1.000000 -1.000000 )  


     PseudoPot. # 1 for  C read from file:
     /home/mullspace/Documents/espresso-4.3.2/pseudo/C.pz-kjpaw.UPF
     MD5 check sum: 414e6e825ae75add557e798061b49a04
     Pseudo is Projector augmented-wave + core cor, Zval =  4.0
     Generated using "atomic" code by A. Dal Corso (espresso distribution)
     Shape of augmentation charge: BESSEL
     Using radial grid of 1073 points,  4 beta functions with: 
                l(1) =   0
                l(2) =   0
                l(3) =   1
                l(4) =   1
     Q(r) pseudized with 0 coefficients 


     atomic species   valence    mass     pseudopotential
        C              4.00    12.01070      C( 1.00)

      8 Sym.Ops. (with inversion)


   Cartesian axes

     site n.     atom                  positions (alat units)
         1           C   tau(   1) = (   0.0000000   0.0000000   0.0500000  )
         2           C   tau(   2) = (   0.2500000   0.2500000   0.2500000  )

     number of k points=    95
                       cart. coord. in units 2pi/alat
        k(    1) = (   0.0000000   0.0000000   0.0000000), wk =   0.0039063
        k(    2) = (  -0.1250000   0.1250000  -0.1250000), wk =   0.0156250
        k(    3) = (  -0.2500000   0.2500000  -0.2500000), wk =   0.0156250
        k(    4) = (  -0.3750000   0.3750000  -0.3750000), wk =   0.0156250
        k(    5) = (   0.5000000  -0.5000000   0.5000000), wk =   0.0078125
        k(    6) = (   0.0000000   0.2500000   0.0000000), wk =   0.0156250
        k(    7) = (  -0.1250000   0.3750000  -0.1250000), wk =   0.0312500
        k(    8) = (  -0.2500000   0.5000000  -0.2500000), wk =   0.0312500
        k(    9) = (   0.6250000  -0.3750000   0.6250000), wk =   0.0312500
        k(   10) = (   0.5000000  -0.2500000   0.5000000), wk =   0.0312500
        k(   11) = (   0.3750000  -0.1250000   0.3750000), wk =   0.0312500
        k(   12) = (   0.2500000   0.0000000   0.2500000), wk =   0.0312500
        k(   13) = (   0.0000000   0.5000000   0.0000000), wk =   0.0156250
        k(   14) = (  -0.1250000   0.6250000  -0.1250000), wk =   0.0312500
        k(   15) = (   0.7500000  -0.2500000   0.7500000), wk =   0.0312500
        k(   16) = (   0.6250000  -0.1250000   0.6250000), wk =   0.0312500
        k(   17) = (   0.5000000   0.0000000   0.5000000), wk =   0.0312500
        k(   18) = (   0.0000000   0.7500000   0.0000000), wk =   0.0156250
        k(   19) = (   0.8750000  -0.1250000   0.8750000), wk =   0.0312500
        k(   20) = (   0.7500000   0.0000000   0.7500000), wk =   0.0312500
        k(   21) = (   0.0000000  -1.0000000   0.0000000), wk =   0.0078125
        k(   22) = (  -0.2500000   0.5000000   0.0000000), wk =   0.0156250
        k(   23) = (   0.6250000  -0.3750000   0.8750000), wk =   0.0312500
        k(   24) = (   0.5000000  -0.2500000   0.7500000), wk =   0.0312500
        k(   25) = (   0.7500000  -0.2500000   1.0000000), wk =   0.0156250
        k(   26) = (   0.6250000  -0.1250000   0.8750000), wk =   0.0312500
        k(   27) = (   0.5000000   0.0000000   0.7500000), wk =   0.0312500
        k(   28) = (  -0.2500000  -1.0000000   0.0000000), wk =   0.0156250
        k(   29) = (  -0.5000000  -1.0000000   0.0000000), wk =   0.0156250
        k(   30) = (  -0.1250000  -0.1250000  -0.1250000), wk =   0.0156250
        k(   31) = (  -0.2500000  -0.2500000  -0.2500000), wk =   0.0156250
        k(   32) = (  -0.3750000  -0.3750000  -0.3750000), wk =   0.0156250
        k(   33) = (   0.5000000   0.5000000   0.5000000), wk =   0.0078125
        k(   34) = (   0.0000000   0.0000000   0.2500000), wk =   0.0078125
        k(   35) = (  -0.1250000  -0.3750000  -0.1250000), wk =   0.0312500
        k(   36) = (   0.1250000  -0.1250000   0.3750000), wk =   0.0156250
        k(   37) = (   0.1250000   0.1250000  -0.3750000), wk =   0.0156250
        k(   38) = (  -0.2500000  -0.5000000  -0.2500000), wk =   0.0312500
        k(   39) = (   0.2500000  -0.2500000   0.5000000), wk =   0.0156250
        k(   40) = (   0.2500000   0.2500000  -0.5000000), wk =   0.0156250
        k(   41) = (   0.6250000   0.3750000   0.6250000), wk =   0.0312500
        k(   42) = (  -0.6250000   0.6250000  -0.3750000), wk =   0.0156250
        k(   43) = (  -0.6250000  -0.6250000   0.3750000), wk =   0.0156250
        k(   44) = (   0.5000000   0.2500000   0.5000000), wk =   0.0312500
        k(   45) = (  -0.5000000   0.5000000  -0.2500000), wk =   0.0156250
        k(   46) = (  -0.5000000  -0.5000000   0.2500000), wk =   0.0156250
        k(   47) = (   0.3750000   0.1250000   0.3750000), wk =   0.0312500
        k(   48) = (  -0.3750000   0.3750000  -0.1250000), wk =   0.0156250
        k(   49) = (  -0.3750000  -0.3750000   0.1250000), wk =   0.0156250
        k(   50) = (  -0.2500000   0.2500000   0.0000000), wk =   0.0078125
        k(   51) = (  -0.2500000  -0.2500000   0.0000000), wk =   0.0078125
        k(   52) = (   0.0000000   0.0000000   0.5000000), wk =   0.0078125
        k(   53) = (  -0.1250000  -0.6250000  -0.1250000), wk =   0.0312500
        k(   54) = (   0.1250000  -0.1250000   0.6250000), wk =   0.0156250
        k(   55) = (   0.1250000   0.1250000  -0.6250000), wk =   0.0156250
        k(   56) = (   0.7500000   0.2500000   0.7500000), wk =   0.0312500
        k(   57) = (  -0.7500000   0.7500000  -0.2500000), wk =   0.0156250
        k(   58) = (  -0.7500000  -0.7500000   0.2500000), wk =   0.0156250
        k(   59) = (   0.6250000   0.1250000   0.6250000), wk =   0.0312500
        k(   60) = (  -0.6250000   0.6250000  -0.1250000), wk =   0.0156250
        k(   61) = (  -0.6250000  -0.6250000   0.1250000), wk =   0.0156250
        k(   62) = (  -0.5000000   0.5000000   0.0000000), wk =   0.0078125
        k(   63) = (  -0.5000000  -0.5000000   0.0000000), wk =   0.0078125
        k(   64) = (   0.0000000   0.0000000   0.7500000), wk =   0.0078125
        k(   65) = (   0.8750000   0.1250000   0.8750000), wk =   0.0312500
        k(   66) = (  -0.8750000   0.8750000  -0.1250000), wk =   0.0156250
        k(   67) = (  -0.8750000  -0.8750000   0.1250000), wk =   0.0156250
        k(   68) = (  -0.7500000   0.7500000   0.0000000), wk =   0.0078125
        k(   69) = (  -0.7500000  -0.7500000   0.0000000), wk =   0.0078125
        k(   70) = (   0.0000000   0.0000000  -1.0000000), wk =   0.0039063
        k(   71) = (   0.0000000  -0.5000000  -0.2500000), wk =   0.0312500
        k(   72) = (   0.2500000   0.0000000   0.5000000), wk =   0.0312500
        k(   73) = (   0.2500000   0.5000000   0.0000000), wk =   0.0156250
        k(   74) = (   0.8750000   0.3750000   0.6250000), wk =   0.0312500
        k(   75) = (  -0.8750000   0.3750000  -0.6250000), wk =   0.0312500
        k(   76) = (  -0.6250000   0.8750000  -0.3750000), wk =   0.0312500
        k(   77) = (  -0.6250000  -0.8750000   0.3750000), wk =   0.0312500
        k(   78) = (  -0.6250000  -0.3750000  -0.8750000), wk =   0.0312500
        k(   79) = (   0.7500000   0.2500000   0.5000000), wk =   0.0156250
        k(   80) = (  -0.7500000   0.2500000  -0.5000000), wk =   0.0156250
        k(   81) = (  -0.5000000  -0.7500000   0.2500000), wk =   0.0312500
        k(   82) = (   1.0000000   0.2500000   0.7500000), wk =   0.0312500
        k(   83) = (  -0.7500000   1.0000000  -0.2500000), wk =   0.0312500
        k(   84) = (  -0.7500000  -0.2500000  -1.0000000), wk =   0.0156250
        k(   85) = (   0.8750000   0.1250000   0.6250000), wk =   0.0312500
        k(   86) = (  -0.8750000   0.1250000  -0.6250000), wk =   0.0312500
        k(   87) = (  -0.6250000   0.8750000  -0.1250000), wk =   0.0312500
        k(   88) = (  -0.6250000  -0.8750000   0.1250000), wk =   0.0312500
        k(   89) = (  -0.6250000  -0.1250000  -0.8750000), wk =   0.0312500
        k(   90) = (   0.7500000   0.0000000   0.5000000), wk =   0.0312500
        k(   91) = (  -0.5000000   0.7500000   0.0000000), wk =   0.0156250
        k(   92) = (  -0.5000000  -0.7500000   0.0000000), wk =   0.0156250
        k(   93) = (   0.0000000   1.0000000  -0.2500000), wk =   0.0156250
        k(   94) = (   0.2500000   0.0000000  -1.0000000), wk =   0.0156250
        k(   95) = (   0.0000000   1.0000000  -0.5000000), wk =   0.0078125

     Dense  grid:    17477 G-vectors     FFT dimensions: (  40,  40,  40)

     Largest allocated arrays     est. size (Mb)     dimensions
        Kohn-Sham Wavefunctions         0.13 Mb     (   2208,    4)
        NL pseudopotentials             0.54 Mb     (   2208,   16)
        Each V/rho on FFT grid          0.98 Mb     (  64000)
        Each G-vector array             0.13 Mb     (  17477)
        G-vector shells                 0.00 Mb     (    220)
     Largest temporary arrays     est. size (Mb)     dimensions
        Auxiliary wavefunctions         0.54 Mb     (   2208,   16)
        Each subspace H/S matrix        0.00 Mb     (  16,  16)
        Each <psi_i|beta_j> matrix      0.00 Mb     (     16,    4)
        Arrays for rho mixing           7.81 Mb     (  64000,   8)

     Initial potential from superposition of free atoms

     starting charge    7.99993, renormalised to    8.00000
     Starting wfc are    8 atomic wfcs

     total cpu time spent up to now is        4.3 secs

     per-process dynamical memory:    12.3 Mb

     Self-consistent Calculation

     iteration #  1     ecut=   140.00 Ry     beta=0.70
     Davidson diagonalization with overlap
     ethr =  1.00E-02,  avg # of iterations =  2.7

     total cpu time spent up to now is       10.0 secs

     total energy              =     -35.55327783 Ry
     Harris-Foulkes estimate   =     -35.59962187 Ry
     estimated scf accuracy    <       0.08618110 Ry

     iteration #  2     ecut=   140.00 Ry     beta=0.70
     Davidson diagonalization with overlap
     ethr =  1.08E-03,  avg # of iterations =  2.9

     total cpu time spent up to now is       16.9 secs

     total energy              =     -35.58240487 Ry
     Harris-Foulkes estimate   =     -35.58732643 Ry
     estimated scf accuracy    <       0.00935071 Ry

     iteration #  3     ecut=   140.00 Ry     beta=0.70
     Davidson diagonalization with overlap
     ethr =  1.17E-04,  avg # of iterations =  2.7

     total cpu time spent up to now is       23.4 secs

     total energy              =     -35.58534641 Ry
     Harris-Foulkes estimate   =     -35.58592281 Ry
     estimated scf accuracy    <       0.00090119 Ry

     iteration #  4     ecut=   140.00 Ry     beta=0.70
     Davidson diagonalization with overlap
     ethr =  1.13E-05,  avg # of iterations =  3.0

     total cpu time spent up to now is       30.6 secs

     total energy              =     -35.58566394 Ry
     Harris-Foulkes estimate   =     -35.58566413 Ry
     estimated scf accuracy    <       0.00001618 Ry

     iteration #  5     ecut=   140.00 Ry     beta=0.70
     Davidson diagonalization with overlap
     ethr =  2.02E-07,  avg # of iterations =  3.5

     total cpu time spent up to now is       37.8 secs

     total energy              =     -35.58567483 Ry
     Harris-Foulkes estimate   =     -35.58568120 Ry
     estimated scf accuracy    <       0.00000993 Ry

     iteration #  6     ecut=   140.00 Ry     beta=0.70
     Davidson diagonalization with overlap
     ethr =  1.24E-07,  avg # of iterations =  2.2

     total cpu time spent up to now is       43.2 secs

     End of self-consistent calculation

          k = 0.0000 0.0000 0.0000 (  2133 PWs)   bands (ev):

    -8.3672  10.0367  13.1364  15.3644

          k =-0.1250 0.1250-0.1250 (  2169 PWs)   bands (ev):

    -7.9434   9.6882  10.9273  13.5377

          k =-0.2500 0.2500-0.2500 (  2178 PWs)   bands (ev):

    -6.6896   6.6921   8.9798  12.3817

          k =-0.3750 0.3750-0.3750 (  2184 PWs)   bands (ev):

    -4.7033   2.6435   8.3976  11.6963

          k = 0.5000-0.5000 0.5000 (  2186 PWs)   bands (ev):

    -2.9697   0.1916   8.1828  11.4704

          k = 0.0000 0.2500 0.0000 (  2169 PWs)   bands (ev):

    -7.8058   8.9590  11.2742  13.2319

          k =-0.1250 0.3750-0.1250 (  2180 PWs)   bands (ev):

    -6.8289   8.2977   8.4596  11.2721

          k =-0.2500 0.5000-0.2500 (  2185 PWs)   bands (ev):

    -5.0762   4.2443   7.7356  10.4877

          k = 0.6250-0.3750 0.6250 (  2186 PWs)   bands (ev):

    -2.9571   0.9580   7.1842  10.3389

          k = 0.5000-0.2500 0.5000 (  2193 PWs)   bands (ev):

    -3.6071   1.8210   6.9763  10.8137

          k = 0.3750-0.1250 0.3750 (  2183 PWs)   bands (ev):

    -5.7344   5.4907   7.2320  11.7262

          k = 0.2500 0.0000 0.2500 (  2183 PWs)   bands (ev):

    -7.2447   7.8631   9.5792  12.6976

          k = 0.0000 0.5000 0.0000 (  2181 PWs)   bands (ev):

    -6.1431   6.7240   8.8703  10.1302

          k =-0.1250 0.6250-0.1250 (  2184 PWs)   bands (ev):

    -4.6624   5.7668   6.4095   8.6792

          k = 0.7500-0.2500 0.7500 (  2188 PWs)   bands (ev):

    -2.6072   2.7968   5.0018   8.5006

          k = 0.6250-0.1250 0.6250 (  2194 PWs)   bands (ev):

    -1.9816   1.9552   4.2752   9.0600

          k = 0.5000 0.0000 0.5000 (  2181 PWs)   bands (ev):

    -4.0113   3.8962   5.1875  10.1256

          k = 0.0000 0.7500 0.0000 (  2185 PWs)   bands (ev):

    -3.4617   3.7387   7.2763   7.6564

          k = 0.8750-0.1250 0.8750 (  2187 PWs)   bands (ev):

    -1.6285   2.2066   5.4529   7.2274

          k = 0.7500 0.0000 0.7500 (  2201 PWs)   bands (ev):

    -0.2204   1.0555   3.7103   7.7286

          k = 0.0000-1.0000 0.0000 (  2200 PWs)   bands (ev):

     0.0203   0.0203   6.7900   6.7900

          k =-0.2500 0.5000 0.0000 (  2176 PWs)   bands (ev):

    -5.6012   7.2976   7.6916   8.0167

          k = 0.6250-0.3750 0.8750 (  2194 PWs)   bands (ev):

    -3.6765   3.6607   6.9216   7.4183

          k = 0.5000-0.2500 0.7500 (  2204 PWs)   bands (ev):

    -2.0202   1.2593   6.1431   7.8876

          k = 0.7500-0.2500 1.0000 (  2183 PWs)   bands (ev):

    -3.0068   4.4449   5.9277   6.1763

          k = 0.6250-0.1250 0.8750 (  2196 PWs)   bands (ev):

    -1.0862   2.5668   3.9049   6.4534

          k = 0.5000 0.0000 0.7500 (  2198 PWs)   bands (ev):

    -1.6103   2.4394   3.8445   7.5861

          k =-0.2500-1.0000 0.0000 (  2196 PWs)   bands (ev):

     0.1316   0.5691   5.5490   5.9163

          k =-0.5000-1.0000 0.0000 (  2208 PWs)   bands (ev):

     0.2686   1.6042   3.8140   5.2458

          k =-0.1250-0.1250-0.1250 (  2169 PWs)   bands (ev):

    -7.9465   8.6817  11.9630  13.8531

          k =-0.2500-0.2500-0.2500 (  2178 PWs)   bands (ev):

    -6.6953   5.4167  10.3890  12.4970

          k =-0.3750-0.3750-0.3750 (  2184 PWs)   bands (ev):

    -4.6573   1.7052   9.4242  11.6791

          k = 0.5000 0.5000 0.5000 (  2186 PWs)   bands (ev):

    -2.4070  -1.1594   9.1028  11.4099

          k = 0.0000 0.0000 0.2500 (  2169 PWs)   bands (ev):

    -7.8019   9.0598  11.6982  12.1809

          k =-0.1250-0.3750-0.1250 (  2180 PWs)   bands (ev):

    -6.8346   6.5090   9.7834  12.3391

          k = 0.1250-0.1250 0.3750 (  2180 PWs)   bands (ev):

    -6.8231   8.1052   8.2400  11.7198

          k = 0.1250 0.1250-0.3750 (  2180 PWs)   bands (ev):

    -6.8245   6.8168  10.2462  10.8915

          k =-0.2500-0.5000-0.2500 (  2185 PWs)   bands (ev):

    -5.0599   3.0990   8.7514  10.9755

          k = 0.2500-0.2500 0.5000 (  2185 PWs)   bands (ev):

    -5.0642   4.1064   7.7152  10.6739

          k = 0.2500 0.2500-0.5000 (  2185 PWs)   bands (ev):

    -5.0476   3.2270   8.9054  10.2839

          k = 0.6250 0.3750 0.6250 (  2186 PWs)   bands (ev):

    -2.6275  -0.2325   8.3350  10.1693

          k =-0.6250 0.6250-0.3750 (  2186 PWs)   bands (ev):

    -2.9403   0.9039   7.6781   9.6903

          k =-0.6250-0.6250 0.3750 (  2186 PWs)   bands (ev):

    -2.6239  -0.1964   7.9696  10.4103

          k = 0.5000 0.2500 0.5000 (  2193 PWs)   bands (ev):

    -3.4801   0.8483   8.2964  10.2831

          k =-0.5000 0.5000-0.2500 (  2193 PWs)   bands (ev):

    -3.6215   1.8760   8.1228   9.1551

          k =-0.5000-0.5000 0.2500 (  2193 PWs)   bands (ev):

    -3.4806   0.8094   7.6510  11.2262

          k = 0.3750 0.1250 0.3750 (  2183 PWs)   bands (ev):

    -5.7313   4.4267   8.6644  11.2580

          k =-0.3750 0.3750-0.1250 (  2183 PWs)   bands (ev):

    -5.7392   5.6402   8.8844   9.2413

          k =-0.3750-0.3750 0.1250 (  2183 PWs)   bands (ev):

    -5.7411   4.2110   8.1586  12.6038

          k =-0.2500 0.2500 0.0000 (  2183 PWs)   bands (ev):

    -7.2436   9.4964   9.5879  10.3736

          k =-0.2500-0.2500 0.0000 (  2183 PWs)   bands (ev):

    -7.2534   7.0210   9.9155  14.1591

          k = 0.0000 0.0000 0.5000 (  2181 PWs)   bands (ev):

    -6.1265   7.2975   8.4458   9.4664

          k =-0.1250-0.6250-0.1250 (  2184 PWs)   bands (ev):

    -4.6528   4.2921   7.7616   9.0894

          k = 0.1250-0.1250 0.6250 (  2184 PWs)   bands (ev):

    -4.6349   5.5253   6.6939   8.3698

          k = 0.1250 0.1250-0.6250 (  2184 PWs)   bands (ev):

    -4.6289   4.9544   6.9273   8.7196

          k = 0.7500 0.2500 0.7500 (  2188 PWs)   bands (ev):

    -2.4387   1.4166   6.5387   8.3187

          k =-0.7500 0.7500-0.2500 (  2188 PWs)   bands (ev):

    -2.5635   2.4871   6.6492   6.8078

          k =-0.7500-0.7500 0.2500 (  2188 PWs)   bands (ev):

    -2.4270   1.7078   5.5631   8.7664

          k = 0.6250 0.1250 0.6250 (  2194 PWs)   bands (ev):

    -1.6959   0.7103   5.4745   8.8320

          k =-0.6250 0.6250-0.1250 (  2194 PWs)   bands (ev):

    -2.0389   2.0153   5.6734   7.1679

          k =-0.6250-0.6250 0.1250 (  2194 PWs)   bands (ev):

    -1.6156   0.6259   4.7892   9.5939

          k =-0.5000 0.5000 0.0000 (  2181 PWs)   bands (ev):

    -4.0492   5.2649   5.2807   8.0642

          k =-0.5000-0.5000 0.0000 (  2181 PWs)   bands (ev):

    -3.9960   3.0551   5.4260  11.0588

          k = 0.0000 0.0000 0.7500 (  2185 PWs)   bands (ev):

    -3.4228   4.4248   5.9612   7.7571

          k = 0.8750 0.1250 0.8750 (  2187 PWs)   bands (ev):

    -1.5313   1.7011   5.9888   7.1801

          k =-0.8750 0.8750-0.1250 (  2187 PWs)   bands (ev):

    -1.5781   2.4364   5.7979   6.2051

          k =-0.8750-0.8750 0.1250 (  2187 PWs)   bands (ev):

    -1.5265   2.4326   4.4672   7.5887

          k =-0.7500 0.7500 0.0000 (  2201 PWs)   bands (ev):

    -0.6028   2.0100   4.1682   6.2498

          k =-0.7500-0.7500 0.0000 (  2201 PWs)   bands (ev):

     0.4677   0.5811   2.8724   8.2363

          k = 0.0000 0.0000-1.0000 (  2200 PWs)   bands (ev):

    -0.4129   0.8932   5.4820   7.1755

          k = 0.0000-0.5000-0.2500 (  2176 PWs)   bands (ev):

    -5.5989   5.6983   7.3475  10.5430

          k = 0.2500 0.0000 0.5000 (  2176 PWs)   bands (ev):

    -5.5861   5.9517   7.1095  10.2316

          k = 0.2500 0.5000 0.0000 (  2176 PWs)   bands (ev):

    -5.6030   4.8980   7.6129  11.5001

          k = 0.8750 0.3750 0.6250 (  2194 PWs)   bands (ev):

    -3.6086   2.4177   7.0874   8.8702

          k =-0.8750 0.3750-0.6250 (  2194 PWs)   bands (ev):

    -3.6591   3.5644   5.3393   9.5574

          k =-0.6250 0.8750-0.3750 (  2194 PWs)   bands (ev):

    -3.6392   3.3929   5.8290   8.9787

          k =-0.6250-0.8750 0.3750 (  2194 PWs)   bands (ev):

    -3.5935   2.5761   6.4957   9.1379

          k =-0.6250-0.3750-0.8750 (  2194 PWs)   bands (ev):

    -3.5976   2.2953   6.3183   9.9712

          k = 0.7500 0.2500 0.5000 (  2204 PWs)   bands (ev):

    -1.4360  -0.2510   7.5221   7.7082

          k =-0.7500 0.2500-0.5000 (  2204 PWs)   bands (ev):

    -2.0223   1.3076   5.1707   9.1531

          k =-0.5000-0.7500 0.2500 (  2204 PWs)   bands (ev):

    -1.4160  -0.2139   6.1917   9.0108

          k = 1.0000 0.2500 0.7500 (  2183 PWs)   bands (ev):

    -2.9691   3.3921   5.9459   7.4216

          k =-0.7500 1.0000-0.2500 (  2183 PWs)   bands (ev):

    -2.9349   3.9712   5.1496   7.2927

          k =-0.7500-0.2500-1.0000 (  2183 PWs)   bands (ev):

    -2.9308   2.8306   6.0526   7.9711

          k = 0.8750 0.1250 0.6250 (  2196 PWs)   bands (ev):

    -0.7030   0.9933   5.3127   6.4000

          k =-0.8750 0.1250-0.6250 (  2196 PWs)   bands (ev):

    -1.0283   2.3060   3.6316   7.1043

          k =-0.6250 0.8750-0.1250 (  2196 PWs)   bands (ev):

    -1.0352   2.2890   4.8673   5.5735

          k =-0.6250-0.8750 0.1250 (  2196 PWs)   bands (ev):

    -0.6952   1.4223   3.8792   7.2771

          k =-0.6250-0.1250-0.8750 (  2196 PWs)   bands (ev):

    -0.6015   0.9171   4.6456   7.0526

          k = 0.7500 0.0000 0.5000 (  2198 PWs)   bands (ev):

    -1.6270   2.2304   4.0872   7.6898

          k =-0.5000 0.7500 0.0000 (  2198 PWs)   bands (ev):

    -1.7809   3.4976   4.2398   6.0282

          k =-0.5000-0.7500 0.0000 (  2198 PWs)   bands (ev):

    -1.4372   1.5810   3.9651   8.3220

          k = 0.0000 1.0000-0.2500 (  2196 PWs)   bands (ev):

     0.3255   0.3255   5.7771   5.7771

          k = 0.2500 0.0000-1.0000 (  2196 PWs)   bands (ev):

    -0.1449   1.3151   4.4879   6.2381

          k = 0.0000 1.0000-0.5000 (  2208 PWs)   bands (ev):

     0.7185   0.7185   4.8141   4.8141

!    total energy              =     -35.58567616 Ry
     Harris-Foulkes estimate   =     -35.58567620 Ry
     estimated scf accuracy    <       0.00000006 Ry

     total all-electron energy =      -151.144672 Ry

     The total energy is the sum of the following terms:

     one-electron contribution =       8.15577688 Ry
     hartree contribution      =       1.96946524 Ry
     xc contribution           =      -8.34825683 Ry
     ewald contribution        =     -25.29117241 Ry
     one-center paw contrib.   =     -12.07148904 Ry

     convergence has been achieved in   6 iterations

     Forces acting on atoms (Ry/au):

     atom    1 type  1   force =     0.00000000    0.00000000   -0.22624607
     atom    2 type  1   force =     0.00000000    0.00000000    0.22624607

     Total force =     0.319960     Total SCF correction =     0.000043

     Writing output data file diamond.save

     init_run     :      4.20s CPU      4.12s WALL (       1 calls)
     electrons    :     40.69s CPU     38.88s WALL (       1 calls)
     forces       :      0.68s CPU      0.56s WALL (       1 calls)

     Called by init_run:
     wfcinit      :      3.38s CPU      3.25s WALL (       1 calls)
     potinit      :      0.06s CPU      0.06s WALL (       1 calls)

     Called by electrons:
     c_bands      :     34.48s CPU     32.62s WALL (       6 calls)
     sum_band     :      5.61s CPU      5.49s WALL (       6 calls)
     v_of_rho     :      0.10s CPU      0.11s WALL (       7 calls)
     newd         :      0.24s CPU      0.25s WALL (       7 calls)
     mix_rho      :      0.10s CPU      0.10s WALL (       6 calls)

     Called by c_bands:
     init_us_2    :      1.53s CPU      1.69s WALL (    1330 calls)
     cegterg      :     32.73s CPU     30.09s WALL (     570 calls)

     Called by *egterg:
     h_psi        :     29.19s CPU     28.23s WALL (    2284 calls)
     s_psi        :      1.88s CPU      1.14s WALL (    2284 calls)
     g_psi        :      0.20s CPU      0.17s WALL (    1619 calls)
     cdiaghg      :      0.37s CPU      0.44s WALL (    2189 calls)

     Called by h_psi:
     add_vuspsi   :      2.09s CPU      1.18s WALL (    2284 calls)

     General routines
     calbec       :      2.97s CPU      1.78s WALL (    2949 calls)
     fft          :      0.11s CPU      0.11s WALL (      45 calls)
     fftw         :     24.81s CPU     25.58s WALL (   17422 calls)
     davcio       :      0.22s CPU      0.92s WALL (    1900 calls)


     PAW routines
     PAW_pot      :      0.20s CPU      0.20s WALL (       7 calls)
     PAW_ddot     :      0.07s CPU      0.07s WALL (      36 calls)
     PAW_symme    :      0.00s CPU      0.00s WALL (      13 calls)

     PWSCF        :    46.03s CPU        44.15s WALL


   This run was terminated on:  21:47:26  26Mar2012            

=------------------------------------------------------------------------------=
   JOB DONE.
=------------------------------------------------------------------------------=
