
     Program PWSCF v.4.3.2      starts on 26Mar2012 at 21:45:59 

     This program is part of the open-source Quantum ESPRESSO suite
     for quantum simulation of materials; please cite
         "P. Giannozzi et al., J. Phys.:Condens. Matter 21 395502 (2009);
          URL http://www.quantum-espresso.org", 
     in publications or presentations arising from this work. More details at
     http://www.quantum-espresso.org/wiki/index.php/Citing_Quantum-ESPRESSO

     Current dimensions of program PWSCF are:
     Max number of different atomic species (ntypx) = 10
     Max number of k-points (npk) =  40000
     Max angular momentum in pseudopotentials (lmaxx) =  3
     Waiting for input...
     Reading input from stdin

     G-vector sticks info
     --------------------
     sticks:   dense  smooth     PW     G-vecs:    dense   smooth      PW
     Sum         889     889    265                17477    17477    2891



     bravais-lattice index     =            2
     lattice parameter (alat)  =       6.7800  a.u.
     unit-cell volume          =      77.9164 (a.u.)^3
     number of atoms/cell      =            2
     number of atomic types    =            1
     number of electrons       =         8.00
     number of Kohn-Sham states=            4
     kinetic-energy cutoff     =     140.0000  Ry
     charge density cutoff     =     560.0000  Ry
     convergence threshold     =      1.0E-06
     mixing beta               =       0.7000
     number of iterations used =            8  plain     mixing
     Exchange-correlation      =  SLA  PZ   NOGX NOGC ( 1 1 0 0 0)
     EXX-fraction              =        0.00

     celldm(1)=   6.780000  celldm(2)=   0.000000  celldm(3)=   0.000000
     celldm(4)=   0.000000  celldm(5)=   0.000000  celldm(6)=   0.000000

     crystal axes: (cart. coord. in units of alat)
               a(1) = (  -0.500000   0.000000   0.500000 )  
               a(2) = (   0.000000   0.500000   0.500000 )  
               a(3) = (  -0.500000   0.500000   0.000000 )  

     reciprocal axes: (cart. coord. in units 2 pi/alat)
               b(1) = ( -1.000000 -1.000000  1.000000 )  
               b(2) = (  1.000000  1.000000  1.000000 )  
               b(3) = ( -1.000000  1.000000 -1.000000 )  


     PseudoPot. # 1 for  C read from file:
     /home/mullspace/Documents/espresso-4.3.2/pseudo/C.pz-kjpaw.UPF
     MD5 check sum: 414e6e825ae75add557e798061b49a04
     Pseudo is Projector augmented-wave + core cor, Zval =  4.0
     Generated using "atomic" code by A. Dal Corso (espresso distribution)
     Shape of augmentation charge: BESSEL
     Using radial grid of 1073 points,  4 beta functions with: 
                l(1) =   0
                l(2) =   0
                l(3) =   1
                l(4) =   1
     Q(r) pseudized with 0 coefficients 


     atomic species   valence    mass     pseudopotential
        C              4.00    12.01070      C( 1.00)

      8 Sym.Ops. (with inversion)


   Cartesian axes

     site n.     atom                  positions (alat units)
         1           C   tau(   1) = (   0.0000000   0.0000000   0.0500000  )
         2           C   tau(   2) = (   0.2500000   0.2500000   0.2500000  )

     number of k points=    95
                       cart. coord. in units 2pi/alat
        k(    1) = (   0.0000000   0.0000000   0.0000000), wk =   0.0039063
        k(    2) = (  -0.1250000   0.1250000  -0.1250000), wk =   0.0156250
        k(    3) = (  -0.2500000   0.2500000  -0.2500000), wk =   0.0156250
        k(    4) = (  -0.3750000   0.3750000  -0.3750000), wk =   0.0156250
        k(    5) = (   0.5000000  -0.5000000   0.5000000), wk =   0.0078125
        k(    6) = (   0.0000000   0.2500000   0.0000000), wk =   0.0156250
        k(    7) = (  -0.1250000   0.3750000  -0.1250000), wk =   0.0312500
        k(    8) = (  -0.2500000   0.5000000  -0.2500000), wk =   0.0312500
        k(    9) = (   0.6250000  -0.3750000   0.6250000), wk =   0.0312500
        k(   10) = (   0.5000000  -0.2500000   0.5000000), wk =   0.0312500
        k(   11) = (   0.3750000  -0.1250000   0.3750000), wk =   0.0312500
        k(   12) = (   0.2500000   0.0000000   0.2500000), wk =   0.0312500
        k(   13) = (   0.0000000   0.5000000   0.0000000), wk =   0.0156250
        k(   14) = (  -0.1250000   0.6250000  -0.1250000), wk =   0.0312500
        k(   15) = (   0.7500000  -0.2500000   0.7500000), wk =   0.0312500
        k(   16) = (   0.6250000  -0.1250000   0.6250000), wk =   0.0312500
        k(   17) = (   0.5000000   0.0000000   0.5000000), wk =   0.0312500
        k(   18) = (   0.0000000   0.7500000   0.0000000), wk =   0.0156250
        k(   19) = (   0.8750000  -0.1250000   0.8750000), wk =   0.0312500
        k(   20) = (   0.7500000   0.0000000   0.7500000), wk =   0.0312500
        k(   21) = (   0.0000000  -1.0000000   0.0000000), wk =   0.0078125
        k(   22) = (  -0.2500000   0.5000000   0.0000000), wk =   0.0156250
        k(   23) = (   0.6250000  -0.3750000   0.8750000), wk =   0.0312500
        k(   24) = (   0.5000000  -0.2500000   0.7500000), wk =   0.0312500
        k(   25) = (   0.7500000  -0.2500000   1.0000000), wk =   0.0156250
        k(   26) = (   0.6250000  -0.1250000   0.8750000), wk =   0.0312500
        k(   27) = (   0.5000000   0.0000000   0.7500000), wk =   0.0312500
        k(   28) = (  -0.2500000  -1.0000000   0.0000000), wk =   0.0156250
        k(   29) = (  -0.5000000  -1.0000000   0.0000000), wk =   0.0156250
        k(   30) = (  -0.1250000  -0.1250000  -0.1250000), wk =   0.0156250
        k(   31) = (  -0.2500000  -0.2500000  -0.2500000), wk =   0.0156250
        k(   32) = (  -0.3750000  -0.3750000  -0.3750000), wk =   0.0156250
        k(   33) = (   0.5000000   0.5000000   0.5000000), wk =   0.0078125
        k(   34) = (   0.0000000   0.0000000   0.2500000), wk =   0.0078125
        k(   35) = (  -0.1250000  -0.3750000  -0.1250000), wk =   0.0312500
        k(   36) = (   0.1250000  -0.1250000   0.3750000), wk =   0.0156250
        k(   37) = (   0.1250000   0.1250000  -0.3750000), wk =   0.0156250
        k(   38) = (  -0.2500000  -0.5000000  -0.2500000), wk =   0.0312500
        k(   39) = (   0.2500000  -0.2500000   0.5000000), wk =   0.0156250
        k(   40) = (   0.2500000   0.2500000  -0.5000000), wk =   0.0156250
        k(   41) = (   0.6250000   0.3750000   0.6250000), wk =   0.0312500
        k(   42) = (  -0.6250000   0.6250000  -0.3750000), wk =   0.0156250
        k(   43) = (  -0.6250000  -0.6250000   0.3750000), wk =   0.0156250
        k(   44) = (   0.5000000   0.2500000   0.5000000), wk =   0.0312500
        k(   45) = (  -0.5000000   0.5000000  -0.2500000), wk =   0.0156250
        k(   46) = (  -0.5000000  -0.5000000   0.2500000), wk =   0.0156250
        k(   47) = (   0.3750000   0.1250000   0.3750000), wk =   0.0312500
        k(   48) = (  -0.3750000   0.3750000  -0.1250000), wk =   0.0156250
        k(   49) = (  -0.3750000  -0.3750000   0.1250000), wk =   0.0156250
        k(   50) = (  -0.2500000   0.2500000   0.0000000), wk =   0.0078125
        k(   51) = (  -0.2500000  -0.2500000   0.0000000), wk =   0.0078125
        k(   52) = (   0.0000000   0.0000000   0.5000000), wk =   0.0078125
        k(   53) = (  -0.1250000  -0.6250000  -0.1250000), wk =   0.0312500
        k(   54) = (   0.1250000  -0.1250000   0.6250000), wk =   0.0156250
        k(   55) = (   0.1250000   0.1250000  -0.6250000), wk =   0.0156250
        k(   56) = (   0.7500000   0.2500000   0.7500000), wk =   0.0312500
        k(   57) = (  -0.7500000   0.7500000  -0.2500000), wk =   0.0156250
        k(   58) = (  -0.7500000  -0.7500000   0.2500000), wk =   0.0156250
        k(   59) = (   0.6250000   0.1250000   0.6250000), wk =   0.0312500
        k(   60) = (  -0.6250000   0.6250000  -0.1250000), wk =   0.0156250
        k(   61) = (  -0.6250000  -0.6250000   0.1250000), wk =   0.0156250
        k(   62) = (  -0.5000000   0.5000000   0.0000000), wk =   0.0078125
        k(   63) = (  -0.5000000  -0.5000000   0.0000000), wk =   0.0078125
        k(   64) = (   0.0000000   0.0000000   0.7500000), wk =   0.0078125
        k(   65) = (   0.8750000   0.1250000   0.8750000), wk =   0.0312500
        k(   66) = (  -0.8750000   0.8750000  -0.1250000), wk =   0.0156250
        k(   67) = (  -0.8750000  -0.8750000   0.1250000), wk =   0.0156250
        k(   68) = (  -0.7500000   0.7500000   0.0000000), wk =   0.0078125
        k(   69) = (  -0.7500000  -0.7500000   0.0000000), wk =   0.0078125
        k(   70) = (   0.0000000   0.0000000  -1.0000000), wk =   0.0039063
        k(   71) = (   0.0000000  -0.5000000  -0.2500000), wk =   0.0312500
        k(   72) = (   0.2500000   0.0000000   0.5000000), wk =   0.0312500
        k(   73) = (   0.2500000   0.5000000   0.0000000), wk =   0.0156250
        k(   74) = (   0.8750000   0.3750000   0.6250000), wk =   0.0312500
        k(   75) = (  -0.8750000   0.3750000  -0.6250000), wk =   0.0312500
        k(   76) = (  -0.6250000   0.8750000  -0.3750000), wk =   0.0312500
        k(   77) = (  -0.6250000  -0.8750000   0.3750000), wk =   0.0312500
        k(   78) = (  -0.6250000  -0.3750000  -0.8750000), wk =   0.0312500
        k(   79) = (   0.7500000   0.2500000   0.5000000), wk =   0.0156250
        k(   80) = (  -0.7500000   0.2500000  -0.5000000), wk =   0.0156250
        k(   81) = (  -0.5000000  -0.7500000   0.2500000), wk =   0.0312500
        k(   82) = (   1.0000000   0.2500000   0.7500000), wk =   0.0312500
        k(   83) = (  -0.7500000   1.0000000  -0.2500000), wk =   0.0312500
        k(   84) = (  -0.7500000  -0.2500000  -1.0000000), wk =   0.0156250
        k(   85) = (   0.8750000   0.1250000   0.6250000), wk =   0.0312500
        k(   86) = (  -0.8750000   0.1250000  -0.6250000), wk =   0.0312500
        k(   87) = (  -0.6250000   0.8750000  -0.1250000), wk =   0.0312500
        k(   88) = (  -0.6250000  -0.8750000   0.1250000), wk =   0.0312500
        k(   89) = (  -0.6250000  -0.1250000  -0.8750000), wk =   0.0312500
        k(   90) = (   0.7500000   0.0000000   0.5000000), wk =   0.0312500
        k(   91) = (  -0.5000000   0.7500000   0.0000000), wk =   0.0156250
        k(   92) = (  -0.5000000  -0.7500000   0.0000000), wk =   0.0156250
        k(   93) = (   0.0000000   1.0000000  -0.2500000), wk =   0.0156250
        k(   94) = (   0.2500000   0.0000000  -1.0000000), wk =   0.0156250
        k(   95) = (   0.0000000   1.0000000  -0.5000000), wk =   0.0078125

     Dense  grid:    17477 G-vectors     FFT dimensions: (  40,  40,  40)

     Largest allocated arrays     est. size (Mb)     dimensions
        Kohn-Sham Wavefunctions         0.13 Mb     (   2204,    4)
        NL pseudopotentials             0.54 Mb     (   2204,   16)
        Each V/rho on FFT grid          0.98 Mb     (  64000)
        Each G-vector array             0.13 Mb     (  17477)
        G-vector shells                 0.00 Mb     (    220)
     Largest temporary arrays     est. size (Mb)     dimensions
        Auxiliary wavefunctions         0.54 Mb     (   2204,   16)
        Each subspace H/S matrix        0.00 Mb     (  16,  16)
        Each <psi_i|beta_j> matrix      0.00 Mb     (     16,    4)
        Arrays for rho mixing           7.81 Mb     (  64000,   8)

     Initial potential from superposition of free atoms

     starting charge    7.99993, renormalised to    8.00000
     Starting wfc are    8 atomic wfcs

     total cpu time spent up to now is        4.3 secs

     per-process dynamical memory:    12.3 Mb

     Self-consistent Calculation

     iteration #  1     ecut=   140.00 Ry     beta=0.70
     Davidson diagonalization with overlap
     ethr =  1.00E-02,  avg # of iterations =  2.8

     total cpu time spent up to now is        9.8 secs

     total energy              =     -35.55386714 Ry
     Harris-Foulkes estimate   =     -35.60155281 Ry
     estimated scf accuracy    <       0.08837580 Ry

     iteration #  2     ecut=   140.00 Ry     beta=0.70
     Davidson diagonalization with overlap
     ethr =  1.10E-03,  avg # of iterations =  2.9

     total cpu time spent up to now is       16.6 secs

     total energy              =     -35.58256536 Ry
     Harris-Foulkes estimate   =     -35.58733219 Ry
     estimated scf accuracy    <       0.00909296 Ry

     iteration #  3     ecut=   140.00 Ry     beta=0.70
     Davidson diagonalization with overlap
     ethr =  1.14E-04,  avg # of iterations =  2.7

     total cpu time spent up to now is       22.8 secs

     total energy              =     -35.58558564 Ry
     Harris-Foulkes estimate   =     -35.58611123 Ry
     estimated scf accuracy    <       0.00082030 Ry

     iteration #  4     ecut=   140.00 Ry     beta=0.70
     Davidson diagonalization with overlap
     ethr =  1.03E-05,  avg # of iterations =  3.1

     total cpu time spent up to now is       30.2 secs

     total energy              =     -35.58589180 Ry
     Harris-Foulkes estimate   =     -35.58589276 Ry
     estimated scf accuracy    <       0.00001673 Ry

     iteration #  5     ecut=   140.00 Ry     beta=0.70
     Davidson diagonalization with overlap
     ethr =  2.09E-07,  avg # of iterations =  3.3

     total cpu time spent up to now is       36.8 secs

     total energy              =     -35.58589990 Ry
     Harris-Foulkes estimate   =     -35.58590524 Ry
     estimated scf accuracy    <       0.00000798 Ry

     iteration #  6     ecut=   140.00 Ry     beta=0.70
     Davidson diagonalization with overlap
     ethr =  9.98E-08,  avg # of iterations =  2.6

     total cpu time spent up to now is       42.7 secs

     End of self-consistent calculation

          k = 0.0000 0.0000 0.0000 (  2133 PWs)   bands (ev):

    -8.3465  10.1085  13.2159  15.4498

          k =-0.1250 0.1250-0.1250 (  2157 PWs)   bands (ev):

    -7.9213   9.7583  10.9986  13.6159

          k =-0.2500 0.2500-0.2500 (  2172 PWs)   bands (ev):

    -6.6632   6.7496   9.0466  12.4557

          k =-0.3750 0.3750-0.3750 (  2174 PWs)   bands (ev):

    -4.6688   2.6866   8.4620  11.7678

          k = 0.5000-0.5000 0.5000 (  2186 PWs)   bands (ev):

    -2.9225   0.2198   8.2464  11.5412

          k = 0.0000 0.2500 0.0000 (  2153 PWs)   bands (ev):

    -7.7834   9.0282  11.3450  13.3106

          k =-0.1250 0.3750-0.1250 (  2174 PWs)   bands (ev):

    -6.8032   8.3609   8.5253  11.3436

          k =-0.2500 0.5000-0.2500 (  2162 PWs)   bands (ev):

    -5.0439   4.2931   7.7998  10.5553

          k = 0.6250-0.3750 0.6250 (  2180 PWs)   bands (ev):

    -2.9124   0.9912   7.2463  10.4055

          k = 0.5000-0.2500 0.5000 (  2172 PWs)   bands (ev):

    -3.5676   1.8602   7.0373  10.8821

          k = 0.3750-0.1250 0.3750 (  2173 PWs)   bands (ev):

    -5.7049   5.5451   7.2931  11.7985

          k = 0.2500 0.0000 0.2500 (  2153 PWs)   bands (ev):

    -7.2205   7.9277   9.6460  12.7735

          k = 0.0000 0.5000 0.0000 (  2181 PWs)   bands (ev):

    -6.1155   6.7894   8.9312  10.1985

          k =-0.1250 0.6250-0.1250 (  2172 PWs)   bands (ev):

    -4.6294   5.8311   6.4622   8.7399

          k = 0.7500-0.2500 0.7500 (  2182 PWs)   bands (ev):

    -2.5644   2.8407   5.0576   8.5597

          k = 0.6250-0.1250 0.6250 (  2182 PWs)   bands (ev):

    -1.9345   1.9945   4.3276   9.1213

          k = 0.5000 0.0000 0.5000 (  2181 PWs)   bands (ev):

    -3.9759   3.9516   5.2374  10.1915

          k = 0.0000 0.7500 0.0000 (  2161 PWs)   bands (ev):

    -3.4254   3.7991   7.3308   7.7122

          k = 0.8750-0.1250 0.8750 (  2179 PWs)   bands (ev):

    -1.5844   2.2612   5.5004   7.2814

          k = 0.7500 0.0000 0.7500 (  2171 PWs)   bands (ev):

    -0.1668   1.1050   3.7480   7.7847

          k = 0.0000-1.0000 0.0000 (  2200 PWs)   bands (ev):

     0.0686   0.0686   6.8423   6.8423

          k =-0.2500 0.5000 0.0000 (  2170 PWs)   bands (ev):

    -5.5710   7.3546   7.7542   8.0810

          k = 0.6250-0.3750 0.8750 (  2180 PWs)   bands (ev):

    -3.6381   3.7070   6.9840   7.4748

          k = 0.5000-0.2500 0.7500 (  2204 PWs)   bands (ev):

    -1.9704   1.2926   6.2011   7.9462

          k = 0.7500-0.2500 1.0000 (  2183 PWs)   bands (ev):

    -2.9670   4.5057   5.9782   6.2269

          k = 0.6250-0.1250 0.8750 (  2192 PWs)   bands (ev):

    -1.0354   2.6169   3.9478   6.5050

          k = 0.5000 0.0000 0.7500 (  2192 PWs)   bands (ev):

    -1.5643   2.4921   3.8875   7.6414

          k =-0.2500-1.0000 0.0000 (  2174 PWs)   bands (ev):

     0.1845   0.6173   5.5974   5.9632

          k =-0.5000-1.0000 0.0000 (  2180 PWs)   bands (ev):

     0.3264   1.6565   3.8542   5.2878

          k =-0.1250-0.1250-0.1250 (  2157 PWs)   bands (ev):

    -7.9246   8.7496  12.0377  13.9320

          k =-0.2500-0.2500-0.2500 (  2172 PWs)   bands (ev):

    -6.6697   5.4751  10.4581  12.5710

          k =-0.3750-0.3750-0.3750 (  2174 PWs)   bands (ev):

    -4.6253   1.7522   9.4901  11.7503

          k = 0.5000 0.5000 0.5000 (  2186 PWs)   bands (ev):

    -2.3628  -1.1264   9.1677  11.4802

          k = 0.0000 0.0000 0.2500 (  2153 PWs)   bands (ev):

    -7.7795   9.1264  11.7774  12.2528

          k =-0.1250-0.3750-0.1250 (  2174 PWs)   bands (ev):

    -6.8094   6.5723   9.8482  12.4145

          k = 0.1250-0.1250 0.3750 (  2174 PWs)   bands (ev):

    -6.7974   8.1690   8.3029  11.7946

          k = 0.1250 0.1250-0.3750 (  2174 PWs)   bands (ev):

    -6.7991   6.8772  10.3204  10.9586

          k =-0.2500-0.5000-0.2500 (  2162 PWs)   bands (ev):

    -5.0293   3.1519   8.8135  11.0457

          k = 0.2500-0.2500 0.5000 (  2162 PWs)   bands (ev):

    -5.0320   4.1563   7.7760  10.7447

          k = 0.2500 0.2500-0.5000 (  2162 PWs)   bands (ev):

    -5.0166   3.2777   8.9735  10.3490

          k = 0.6250 0.3750 0.6250 (  2180 PWs)   bands (ev):

    -2.5876  -0.1922   8.3971  10.2358

          k =-0.6250 0.6250-0.3750 (  2180 PWs)   bands (ev):

    -2.8956   0.9374   7.7390   9.7570

          k =-0.6250-0.6250 0.3750 (  2180 PWs)   bands (ev):

    -2.5834  -0.1573   8.0330  10.4762

          k = 0.5000 0.2500 0.5000 (  2172 PWs)   bands (ev):

    -3.4437   0.8923   8.3589  10.3497

          k =-0.5000 0.5000-0.2500 (  2172 PWs)   bands (ev):

    -3.5815   1.9147   8.1860   9.2195

          k =-0.5000-0.5000 0.2500 (  2172 PWs)   bands (ev):

    -3.4450   0.8548   7.7115  11.2955

          k = 0.3750 0.1250 0.3750 (  2173 PWs)   bands (ev):

    -5.7025   4.4818   8.7281  11.3285

          k =-0.3750 0.3750-0.1250 (  2173 PWs)   bands (ev):

    -5.7093   5.6935   8.9512   9.3059

          k =-0.3750-0.3750 0.1250 (  2173 PWs)   bands (ev):

    -5.7129   4.2686   8.2182  12.6786

          k =-0.2500 0.2500 0.0000 (  2153 PWs)   bands (ev):

    -7.2191   9.5616   9.6579  10.4423

          k =-0.2500-0.2500 0.0000 (  2153 PWs)   bands (ev):

    -7.2296   7.0868   9.9799  14.2401

          k = 0.0000 0.0000 0.5000 (  2181 PWs)   bands (ev):

    -6.0987   7.3560   8.5190   9.5280

          k =-0.1250-0.6250-0.1250 (  2172 PWs)   bands (ev):

    -4.6208   4.3527   7.8183   9.1516

          k = 0.1250-0.1250 0.6250 (  2172 PWs)   bands (ev):

    -4.6019   5.5855   6.7498   8.4302

          k = 0.1250 0.1250-0.6250 (  2172 PWs)   bands (ev):

    -4.5962   5.0102   6.9908   8.7785

          k = 0.7500 0.2500 0.7500 (  2182 PWs)   bands (ev):

    -2.3995   1.4674   6.5927   8.3772

          k =-0.7500 0.7500-0.2500 (  2182 PWs)   bands (ev):

    -2.5205   2.5322   6.7051   6.8633

          k =-0.7500-0.7500 0.2500 (  2182 PWs)   bands (ev):

    -2.3865   1.7546   5.6196   8.8255

          k = 0.6250 0.1250 0.6250 (  2182 PWs)   bands (ev):

    -1.6513   0.7543   5.5258   8.8927

          k =-0.6250 0.6250-0.1250 (  2182 PWs)   bands (ev):

    -1.9903   2.0532   5.7257   7.2264

          k =-0.6250-0.6250 0.1250 (  2182 PWs)   bands (ev):

    -1.5737   0.6731   4.8399   9.6563

          k =-0.5000 0.5000 0.0000 (  2181 PWs)   bands (ev):

    -4.0124   5.3143   5.3348   8.1270

          k =-0.5000-0.5000 0.0000 (  2181 PWs)   bands (ev):

    -3.9628   3.1143   5.4740  11.1272

          k = 0.0000 0.0000 0.7500 (  2161 PWs)   bands (ev):

    -3.3859   4.4853   6.0140   7.8124

          k = 0.8750 0.1250 0.8750 (  2179 PWs)   bands (ev):

    -1.4891   1.7576   6.0367   7.2339

          k =-0.8750 0.8750-0.1250 (  2179 PWs)   bands (ev):

    -1.5327   2.4889   5.8501   6.2530

          k =-0.8750-0.8750 0.1250 (  2179 PWs)   bands (ev):

    -1.4820   2.4870   4.5136   7.6434

          k =-0.7500 0.7500 0.0000 (  2171 PWs)   bands (ev):

    -0.5460   2.0548   4.2061   6.3041

          k =-0.7500-0.7500 0.0000 (  2171 PWs)   bands (ev):

     0.5230   0.6306   2.9085   8.2935

          k = 0.0000 0.0000-1.0000 (  2200 PWs)   bands (ev):

    -0.3591   0.9348   5.5329   7.2287

          k = 0.0000-0.5000-0.2500 (  2170 PWs)   bands (ev):

    -5.5694   5.7596   7.4048  10.6109

          k = 0.2500 0.0000 0.5000 (  2170 PWs)   bands (ev):

    -5.5565   6.0105   7.1689  10.2995

          k = 0.2500 0.5000 0.0000 (  2170 PWs)   bands (ev):

    -5.5743   4.9606   7.6686  11.5708

          k = 0.8750 0.3750 0.6250 (  2180 PWs)   bands (ev):

    -3.5727   2.4691   7.1437   8.9323

          k =-0.8750 0.3750-0.6250 (  2180 PWs)   bands (ev):

    -3.6216   3.6121   5.3966   9.6197

          k =-0.6250 0.8750-0.3750 (  2180 PWs)   bands (ev):

    -3.6016   3.4413   5.8844   9.0417

          k =-0.6250-0.8750 0.3750 (  2180 PWs)   bands (ev):

    -3.5572   2.6254   6.5547   9.1990

          k =-0.6250-0.3750-0.8750 (  2180 PWs)   bands (ev):

    -3.5629   2.3491   6.3726  10.0348

          k = 0.7500 0.2500 0.5000 (  2204 PWs)   bands (ev):

    -1.3886  -0.2125   7.5785   7.7676

          k =-0.7500 0.2500-0.5000 (  2204 PWs)   bands (ev):

    -1.9733   1.3410   5.2290   9.2130

          k =-0.5000-0.7500 0.2500 (  2204 PWs)   bands (ev):

    -1.3692  -0.1755   6.2491   9.0702

          k = 1.0000 0.2500 0.7500 (  2183 PWs)   bands (ev):

    -2.9306   3.4516   5.9965   7.4749

          k =-0.7500 1.0000-0.2500 (  2183 PWs)   bands (ev):

    -2.8958   4.0305   5.1997   7.3454

          k =-0.7500-0.2500-1.0000 (  2183 PWs)   bands (ev):

    -2.8939   2.8915   6.1027   8.0254

          k = 0.8750 0.1250 0.6250 (  2192 PWs)   bands (ev):

    -0.6558   1.0447   5.3587   6.4512

          k =-0.8750 0.1250-0.6250 (  2192 PWs)   bands (ev):

    -0.9790   2.3608   3.6715   7.1558

          k =-0.6250 0.8750-0.1250 (  2192 PWs)   bands (ev):

    -0.9836   2.3355   4.9161   5.6208

          k =-0.6250-0.8750 0.1250 (  2192 PWs)   bands (ev):

    -0.6466   1.4719   3.9254   7.3291

          k =-0.6250-0.1250-0.8750 (  2192 PWs)   bands (ev):

    -0.5561   0.9707   4.6917   7.1035

          k = 0.7500 0.0000 0.5000 (  2192 PWs)   bands (ev):

    -1.5817   2.2845   4.1296   7.7450

          k =-0.5000 0.7500 0.0000 (  2192 PWs)   bands (ev):

    -1.7327   3.5486   4.2819   6.0822

          k =-0.5000-0.7500 0.0000 (  2192 PWs)   bands (ev):

    -1.3958   1.6389   4.0076   8.3783

          k = 0.0000 1.0000-0.2500 (  2174 PWs)   bands (ev):

     0.3762   0.3762   5.8246   5.8246

          k = 0.2500 0.0000-1.0000 (  2174 PWs)   bands (ev):

    -0.0892   1.3600   4.5348   6.2861

          k = 0.0000 1.0000-0.5000 (  2180 PWs)   bands (ev):

     0.7730   0.7730   4.8557   4.8557

!    total energy              =     -35.58590128 Ry
     Harris-Foulkes estimate   =     -35.58590135 Ry
     estimated scf accuracy    <       0.00000012 Ry

     total all-electron energy =      -151.144898 Ry

     The total energy is the sum of the following terms:

     one-electron contribution =       8.20548241 Ry
     hartree contribution      =       1.96462952 Ry
     xc contribution           =      -8.35573202 Ry
     ewald contribution        =     -25.32847503 Ry
     one-center paw contrib.   =     -12.07180616 Ry

     convergence has been achieved in   6 iterations

     Forces acting on atoms (Ry/au):

     atom    1 type  1   force =    -0.00000000   -0.00000000   -0.22810919
     atom    2 type  1   force =     0.00000000    0.00000000    0.22810919

     Total force =     0.322595     Total SCF correction =     0.000121

     Writing output data file diamond.save

     init_run     :      4.18s CPU      4.05s WALL (       1 calls)
     electrons    :     40.28s CPU     38.39s WALL (       1 calls)
     forces       :      0.69s CPU      0.55s WALL (       1 calls)

     Called by init_run:
     wfcinit      :      3.35s CPU      3.19s WALL (       1 calls)
     potinit      :      0.06s CPU      0.06s WALL (       1 calls)

     Called by electrons:
     c_bands      :     34.16s CPU     32.09s WALL (       6 calls)
     sum_band     :      5.54s CPU      5.41s WALL (       6 calls)
     v_of_rho     :      0.11s CPU      0.11s WALL (       7 calls)
     newd         :      0.22s CPU      0.24s WALL (       7 calls)
     mix_rho      :      0.09s CPU      0.10s WALL (       6 calls)

     Called by c_bands:
     init_us_2    :      1.52s CPU      1.66s WALL (    1330 calls)
     cegterg      :     32.51s CPU     29.63s WALL (     570 calls)

     Called by *egterg:
     h_psi        :     28.77s CPU     27.85s WALL (    2303 calls)
     s_psi        :      1.88s CPU      1.11s WALL (    2303 calls)
     g_psi        :      0.17s CPU      0.17s WALL (    1638 calls)
     cdiaghg      :      0.35s CPU      0.44s WALL (    2208 calls)

     Called by h_psi:
     add_vuspsi   :      2.02s CPU      1.16s WALL (    2303 calls)

     General routines
     calbec       :      2.86s CPU      1.73s WALL (    2968 calls)
     fft          :      0.11s CPU      0.11s WALL (      45 calls)
     fftw         :     24.67s CPU     25.32s WALL (   17484 calls)
     davcio       :      0.20s CPU      0.89s WALL (    1900 calls)


     PAW routines
     PAW_pot      :      0.20s CPU      0.20s WALL (       7 calls)
     PAW_ddot     :      0.06s CPU      0.07s WALL (      36 calls)
     PAW_symme    :      0.00s CPU      0.00s WALL (      13 calls)

     PWSCF        :    45.63s CPU        43.62s WALL


   This run was terminated on:  21:46:42  26Mar2012            

=------------------------------------------------------------------------------=
   JOB DONE.
=------------------------------------------------------------------------------=
