
     Program PWSCF v.4.3.2      starts on 26Mar2012 at 21:37:15 

     This program is part of the open-source Quantum ESPRESSO suite
     for quantum simulation of materials; please cite
         "P. Giannozzi et al., J. Phys.:Condens. Matter 21 395502 (2009);
          URL http://www.quantum-espresso.org", 
     in publications or presentations arising from this work. More details at
     http://www.quantum-espresso.org/wiki/index.php/Citing_Quantum-ESPRESSO

     Current dimensions of program PWSCF are:
     Max number of different atomic species (ntypx) = 10
     Max number of k-points (npk) =  40000
     Max angular momentum in pseudopotentials (lmaxx) =  3
     Waiting for input...
     Reading input from stdin
     warning: symmetry operation #  5 not allowed.   fractional translation:
       0.2000000  0.2000000  0.3000000  in crystal coordinates
     warning: symmetry operation #  6 not allowed.   fractional translation:
       0.2000000  0.2000000  0.3000000  in crystal coordinates
     warning: symmetry operation # 25 not allowed.   fractional translation:
       0.2000000  0.2000000  0.3000000  in crystal coordinates
     warning: symmetry operation # 26 not allowed.   fractional translation:
       0.2000000  0.2000000  0.3000000  in crystal coordinates

     G-vector sticks info
     --------------------
     sticks:   dense  smooth     PW     G-vecs:    dense   smooth      PW
     Sum         847     847    253                16361    16361    2733



     bravais-lattice index     =            2
     lattice parameter (alat)  =       6.6400  a.u.
     unit-cell volume          =      73.1887 (a.u.)^3
     number of atoms/cell      =            2
     number of atomic types    =            1
     number of electrons       =         8.00
     number of Kohn-Sham states=            4
     kinetic-energy cutoff     =     140.0000  Ry
     charge density cutoff     =     560.0000  Ry
     convergence threshold     =      1.0E-06
     mixing beta               =       0.7000
     number of iterations used =            8  plain     mixing
     Exchange-correlation      =  SLA  PZ   NOGX NOGC ( 1 1 0 0 0)
     EXX-fraction              =        0.00

     celldm(1)=   6.640000  celldm(2)=   0.000000  celldm(3)=   0.000000
     celldm(4)=   0.000000  celldm(5)=   0.000000  celldm(6)=   0.000000

     crystal axes: (cart. coord. in units of alat)
               a(1) = (  -0.500000   0.000000   0.500000 )  
               a(2) = (   0.000000   0.500000   0.500000 )  
               a(3) = (  -0.500000   0.500000   0.000000 )  

     reciprocal axes: (cart. coord. in units 2 pi/alat)
               b(1) = ( -1.000000 -1.000000  1.000000 )  
               b(2) = (  1.000000  1.000000  1.000000 )  
               b(3) = ( -1.000000  1.000000 -1.000000 )  


     PseudoPot. # 1 for  C read from file:
     /home/mullspace/Documents/espresso-4.3.2/pseudo/C.pz-kjpaw.UPF
     MD5 check sum: 414e6e825ae75add557e798061b49a04
     Pseudo is Projector augmented-wave + core cor, Zval =  4.0
     Generated using "atomic" code by A. Dal Corso (espresso distribution)
     Shape of augmentation charge: BESSEL
     Using radial grid of 1073 points,  4 beta functions with: 
                l(1) =   0
                l(2) =   0
                l(3) =   1
                l(4) =   1
     Q(r) pseudized with 0 coefficients 


     atomic species   valence    mass     pseudopotential
        C              4.00    12.01070      C( 1.00)

      4 Sym.Ops. (no inversion)


   Cartesian axes

     site n.     atom                  positions (alat units)
         1           C   tau(   1) = (   0.0000000   0.0000000   0.0500000  )
         2           C   tau(   2) = (   0.2500000   0.2500000   0.2500000  )

     number of k points=    95
                       cart. coord. in units 2pi/alat
        k(    1) = (   0.0000000   0.0000000   0.0000000), wk =   0.0039063
        k(    2) = (  -0.1250000   0.1250000  -0.1250000), wk =   0.0156250
        k(    3) = (  -0.2500000   0.2500000  -0.2500000), wk =   0.0156250
        k(    4) = (  -0.3750000   0.3750000  -0.3750000), wk =   0.0156250
        k(    5) = (   0.5000000  -0.5000000   0.5000000), wk =   0.0078125
        k(    6) = (   0.0000000   0.2500000   0.0000000), wk =   0.0156250
        k(    7) = (  -0.1250000   0.3750000  -0.1250000), wk =   0.0312500
        k(    8) = (  -0.2500000   0.5000000  -0.2500000), wk =   0.0312500
        k(    9) = (   0.6250000  -0.3750000   0.6250000), wk =   0.0312500
        k(   10) = (   0.5000000  -0.2500000   0.5000000), wk =   0.0312500
        k(   11) = (   0.3750000  -0.1250000   0.3750000), wk =   0.0312500
        k(   12) = (   0.2500000   0.0000000   0.2500000), wk =   0.0312500
        k(   13) = (   0.0000000   0.5000000   0.0000000), wk =   0.0156250
        k(   14) = (  -0.1250000   0.6250000  -0.1250000), wk =   0.0312500
        k(   15) = (   0.7500000  -0.2500000   0.7500000), wk =   0.0312500
        k(   16) = (   0.6250000  -0.1250000   0.6250000), wk =   0.0312500
        k(   17) = (   0.5000000   0.0000000   0.5000000), wk =   0.0312500
        k(   18) = (   0.0000000   0.7500000   0.0000000), wk =   0.0156250
        k(   19) = (   0.8750000  -0.1250000   0.8750000), wk =   0.0312500
        k(   20) = (   0.7500000   0.0000000   0.7500000), wk =   0.0312500
        k(   21) = (   0.0000000  -1.0000000   0.0000000), wk =   0.0078125
        k(   22) = (  -0.2500000   0.5000000   0.0000000), wk =   0.0156250
        k(   23) = (   0.6250000  -0.3750000   0.8750000), wk =   0.0312500
        k(   24) = (   0.5000000  -0.2500000   0.7500000), wk =   0.0312500
        k(   25) = (   0.7500000  -0.2500000   1.0000000), wk =   0.0156250
        k(   26) = (   0.6250000  -0.1250000   0.8750000), wk =   0.0312500
        k(   27) = (   0.5000000   0.0000000   0.7500000), wk =   0.0312500
        k(   28) = (  -0.2500000  -1.0000000   0.0000000), wk =   0.0156250
        k(   29) = (  -0.5000000  -1.0000000   0.0000000), wk =   0.0156250
        k(   30) = (   0.1250000   0.1250000  -0.1250000), wk =   0.0156250
        k(   31) = (   0.2500000   0.2500000  -0.2500000), wk =   0.0156250
        k(   32) = (   0.3750000   0.3750000  -0.3750000), wk =   0.0156250
        k(   33) = (  -0.5000000  -0.5000000   0.5000000), wk =   0.0078125
        k(   34) = (   0.0000000   0.0000000   0.2500000), wk =   0.0078125
        k(   35) = (   0.3750000   0.1250000  -0.1250000), wk =   0.0312500
        k(   36) = (   0.1250000  -0.1250000   0.3750000), wk =   0.0156250
        k(   37) = (   0.1250000   0.1250000  -0.3750000), wk =   0.0156250
        k(   38) = (   0.5000000   0.2500000  -0.2500000), wk =   0.0312500
        k(   39) = (   0.2500000  -0.2500000   0.5000000), wk =   0.0156250
        k(   40) = (   0.2500000   0.2500000  -0.5000000), wk =   0.0156250
        k(   41) = (  -0.3750000  -0.6250000   0.6250000), wk =   0.0312500
        k(   42) = (  -0.6250000   0.6250000  -0.3750000), wk =   0.0156250
        k(   43) = (  -0.6250000  -0.6250000   0.3750000), wk =   0.0156250
        k(   44) = (  -0.2500000  -0.5000000   0.5000000), wk =   0.0312500
        k(   45) = (  -0.5000000   0.5000000  -0.2500000), wk =   0.0156250
        k(   46) = (  -0.5000000  -0.5000000   0.2500000), wk =   0.0156250
        k(   47) = (  -0.1250000  -0.3750000   0.3750000), wk =   0.0312500
        k(   48) = (  -0.3750000   0.3750000  -0.1250000), wk =   0.0156250
        k(   49) = (  -0.3750000  -0.3750000   0.1250000), wk =   0.0156250
        k(   50) = (  -0.2500000   0.2500000   0.0000000), wk =   0.0078125
        k(   51) = (  -0.2500000  -0.2500000   0.0000000), wk =   0.0078125
        k(   52) = (   0.0000000   0.0000000   0.5000000), wk =   0.0078125
        k(   53) = (   0.6250000   0.1250000  -0.1250000), wk =   0.0312500
        k(   54) = (   0.1250000  -0.1250000   0.6250000), wk =   0.0156250
        k(   55) = (   0.1250000   0.1250000  -0.6250000), wk =   0.0156250
        k(   56) = (  -0.2500000  -0.7500000   0.7500000), wk =   0.0312500
        k(   57) = (  -0.7500000   0.7500000  -0.2500000), wk =   0.0156250
        k(   58) = (  -0.7500000  -0.7500000   0.2500000), wk =   0.0156250
        k(   59) = (  -0.1250000  -0.6250000   0.6250000), wk =   0.0312500
        k(   60) = (  -0.6250000   0.6250000  -0.1250000), wk =   0.0156250
        k(   61) = (  -0.6250000  -0.6250000   0.1250000), wk =   0.0156250
        k(   62) = (  -0.5000000   0.5000000   0.0000000), wk =   0.0078125
        k(   63) = (  -0.5000000  -0.5000000   0.0000000), wk =   0.0078125
        k(   64) = (   0.0000000   0.0000000   0.7500000), wk =   0.0078125
        k(   65) = (  -0.1250000  -0.8750000   0.8750000), wk =   0.0312500
        k(   66) = (  -0.8750000   0.8750000  -0.1250000), wk =   0.0156250
        k(   67) = (  -0.8750000  -0.8750000   0.1250000), wk =   0.0156250
        k(   68) = (  -0.7500000   0.7500000   0.0000000), wk =   0.0078125
        k(   69) = (  -0.7500000  -0.7500000   0.0000000), wk =   0.0078125
        k(   70) = (   0.0000000   0.0000000  -1.0000000), wk =   0.0039063
        k(   71) = (   0.5000000   0.2500000   0.0000000), wk =   0.0156250
        k(   72) = (   0.0000000  -0.5000000  -0.2500000), wk =   0.0312500
        k(   73) = (   0.2500000   0.0000000   0.5000000), wk =   0.0312500
        k(   74) = (  -0.3750000  -0.6250000   0.8750000), wk =   0.0312500
        k(   75) = (   0.8750000   0.3750000   0.6250000), wk =   0.0312500
        k(   76) = (  -0.8750000   0.3750000  -0.6250000), wk =   0.0312500
        k(   77) = (  -0.6250000   0.8750000  -0.3750000), wk =   0.0312500
        k(   78) = (  -0.6250000  -0.8750000   0.3750000), wk =   0.0312500
        k(   79) = (  -0.2500000  -0.5000000   0.7500000), wk =   0.0312500
        k(   80) = (   0.7500000   0.2500000   0.5000000), wk =   0.0156250
        k(   81) = (  -0.7500000   0.2500000  -0.5000000), wk =   0.0156250
        k(   82) = (  -0.2500000  -0.7500000   1.0000000), wk =   0.0156250
        k(   83) = (   1.0000000   0.2500000   0.7500000), wk =   0.0312500
        k(   84) = (  -0.7500000   1.0000000  -0.2500000), wk =   0.0312500
        k(   85) = (  -0.1250000  -0.6250000   0.8750000), wk =   0.0312500
        k(   86) = (   0.8750000   0.1250000   0.6250000), wk =   0.0312500
        k(   87) = (  -0.8750000   0.1250000  -0.6250000), wk =   0.0312500
        k(   88) = (  -0.6250000   0.8750000  -0.1250000), wk =   0.0312500
        k(   89) = (  -0.6250000  -0.8750000   0.1250000), wk =   0.0312500
        k(   90) = (   0.7500000   0.0000000   0.5000000), wk =   0.0312500
        k(   91) = (  -0.5000000   0.7500000   0.0000000), wk =   0.0156250
        k(   92) = (  -0.5000000  -0.7500000   0.0000000), wk =   0.0156250
        k(   93) = (   0.0000000   1.0000000  -0.2500000), wk =   0.0156250
        k(   94) = (   0.2500000   0.0000000  -1.0000000), wk =   0.0156250
        k(   95) = (   0.0000000   1.0000000  -0.5000000), wk =   0.0078125

     Dense  grid:    16361 G-vectors     FFT dimensions: (  36,  36,  36)

     Largest allocated arrays     est. size (Mb)     dimensions
        Kohn-Sham Wavefunctions         0.13 Mb     (   2085,    4)
        NL pseudopotentials             0.51 Mb     (   2085,   16)
        Each V/rho on FFT grid          0.71 Mb     (  46656)
        Each G-vector array             0.12 Mb     (  16361)
        G-vector shells                 0.00 Mb     (    210)
     Largest temporary arrays     est. size (Mb)     dimensions
        Auxiliary wavefunctions         0.51 Mb     (   2085,   16)
        Each subspace H/S matrix        0.00 Mb     (  16,  16)
        Each <psi_i|beta_j> matrix      0.00 Mb     (     16,    4)
        Arrays for rho mixing           5.70 Mb     (  46656,   8)

     Initial potential from superposition of free atoms

     starting charge    7.99993, renormalised to    8.00000
     Starting wfc are    8 atomic wfcs

     total cpu time spent up to now is        3.5 secs

     per-process dynamical memory:    10.5 Mb

     Self-consistent Calculation

     iteration #  1     ecut=   140.00 Ry     beta=0.70
     Davidson diagonalization with overlap
     ethr =  1.00E-02,  avg # of iterations =  2.9

     total cpu time spent up to now is        8.5 secs

     total energy              =     -35.55378843 Ry
     Harris-Foulkes estimate   =     -35.61633365 Ry
     estimated scf accuracy    <       0.11233078 Ry

     iteration #  2     ecut=   140.00 Ry     beta=0.70
     Davidson diagonalization with overlap
     ethr =  1.40E-03,  avg # of iterations =  2.8

     total cpu time spent up to now is       13.7 secs

     total energy              =     -35.57951076 Ry
     Harris-Foulkes estimate   =     -35.58385720 Ry
     estimated scf accuracy    <       0.00836037 Ry

     iteration #  3     ecut=   140.00 Ry     beta=0.70
     Davidson diagonalization with overlap
     ethr =  1.05E-04,  avg # of iterations =  2.8

     total cpu time spent up to now is       18.9 secs

     total energy              =     -35.58390880 Ry
     Harris-Foulkes estimate   =     -35.58441461 Ry
     estimated scf accuracy    <       0.00078630 Ry

     iteration #  4     ecut=   140.00 Ry     beta=0.70
     Davidson diagonalization with overlap
     ethr =  9.83E-06,  avg # of iterations =  3.1

     total cpu time spent up to now is       24.7 secs

     total energy              =     -35.58417988 Ry
     Harris-Foulkes estimate   =     -35.58419284 Ry
     estimated scf accuracy    <       0.00003666 Ry

     iteration #  5     ecut=   140.00 Ry     beta=0.70
     Davidson diagonalization with overlap
     ethr =  4.58E-07,  avg # of iterations =  2.3

     total cpu time spent up to now is       29.1 secs

     total energy              =     -35.58418491 Ry
     Harris-Foulkes estimate   =     -35.58418851 Ry
     estimated scf accuracy    <       0.00000511 Ry

     iteration #  6     ecut=   140.00 Ry     beta=0.70
     Davidson diagonalization with overlap
     ethr =  6.39E-08,  avg # of iterations =  3.3

     total cpu time spent up to now is       35.2 secs

     End of self-consistent calculation

          k = 0.0000 0.0000 0.0000 (  2085 PWs)   bands (ev):

    -8.0418  11.1548  14.3755  16.6948

          k =-0.1250 0.1250-0.1250 (  2049 PWs)   bands (ev):

    -7.5971  10.7794  12.0366  14.7560

          k =-0.2500 0.2500-0.2500 (  2048 PWs)   bands (ev):

    -6.2781   7.5880  10.0211  13.5329

          k =-0.3750 0.3750-0.3750 (  2039 PWs)   bands (ev):

    -4.1682   3.3183   9.4015  12.8107

          k = 0.5000-0.5000 0.5000 (  2036 PWs)   bands (ev):

    -2.2313   0.6293   9.1736  12.5735

          k = 0.0000 0.2500 0.0000 (  2029 PWs)   bands (ev):

    -7.4542  10.0357  12.3761  14.4565

          k =-0.1250 0.3750-0.1250 (  2040 PWs)   bands (ev):

    -6.4268   9.2710   9.4915  12.3853

          k =-0.2500 0.5000-0.2500 (  2036 PWs)   bands (ev):

    -4.5729   5.0064   8.7347  11.5416

          k = 0.6250-0.3750 0.6250 (  2047 PWs)   bands (ev):

    -2.2616   1.4763   8.1520  11.3758

          k = 0.5000-0.2500 0.5000 (  2042 PWs)   bands (ev):

    -2.9938   2.4347   7.9259  11.8800

          k = 0.3750-0.1250 0.3750 (  2046 PWs)   bands (ev):

    -5.2744   6.3377   8.1848  12.8525

          k = 0.2500 0.0000 0.2500 (  2047 PWs)   bands (ev):

    -6.8660   8.8675  10.6192  13.8805

          k = 0.0000 0.5000 0.0000 (  2045 PWs)   bands (ev):

    -5.7120   7.7375   9.8193  11.1964

          k =-0.1250 0.6250-0.1250 (  2043 PWs)   bands (ev):

    -4.1480   6.7646   7.2322   9.6261

          k = 0.7500-0.2500 0.7500 (  2057 PWs)   bands (ev):

    -1.9426   3.4777   5.8766   9.4212

          k = 0.6250-0.1250 0.6250 (  2047 PWs)   bands (ev):

    -1.2492   2.5630   5.0965  10.0151

          k = 0.5000 0.0000 0.5000 (  2029 PWs)   bands (ev):

    -3.4621   4.7558   5.9690  11.1529

          k = 0.0000 0.7500 0.0000 (  2052 PWs)   bands (ev):

    -2.8965   4.6763   8.1265   8.5267

          k = 0.8750-0.1250 0.8750 (  2051 PWs)   bands (ev):

    -0.9431   3.0555   6.1940   8.0686

          k = 0.7500 0.0000 0.7500 (  2065 PWs)   bands (ev):

     0.6158   1.8235   4.2967   8.6015

          k = 0.0000-1.0000 0.0000 (  2044 PWs)   bands (ev):

     0.7698   0.7698   7.6050   7.6050

          k =-0.2500 0.5000 0.0000 (  2050 PWs)   bands (ev):

    -5.1308   8.1874   8.6481   9.0338

          k = 0.6250-0.3750 0.8750 (  2049 PWs)   bands (ev):

    -3.0808   4.3821   7.8935   8.2984

          k = 0.5000-0.2500 0.7500 (  2036 PWs)   bands (ev):

    -1.2417   1.7753   7.0457   8.8017

          k = 0.7500-0.2500 1.0000 (  2051 PWs)   bands (ev):

    -2.3878   5.3897   6.7159   6.9652

          k = 0.6250-0.1250 0.8750 (  2055 PWs)   bands (ev):

    -0.2954   3.3376   4.5826   7.2582

          k = 0.5000 0.0000 0.7500 (  2054 PWs)   bands (ev):

    -0.8974   3.2571   4.5197   8.4480

          k =-0.2500-1.0000 0.0000 (  2056 PWs)   bands (ev):

     0.9526   1.3179   6.3038   6.6484

          k =-0.5000-1.0000 0.0000 (  2048 PWs)   bands (ev):

     1.1705   2.4203   4.4382   5.8990

          k = 0.1250 0.1250-0.1250 (  2049 PWs)   bands (ev):

    -7.6025   9.7375  13.1268  15.0802

          k = 0.2500 0.2500-0.2500 (  2048 PWs)   bands (ev):

    -6.2949   6.3235  11.4645  13.6482

          k = 0.3750 0.3750-0.3750 (  2039 PWs)   bands (ev):

    -4.1594   2.4376  10.4511  12.7883

          k =-0.5000-0.5000 0.5000 (  2036 PWs)   bands (ev):

    -1.7148  -0.6493  10.1142  12.5060

          k = 0.0000 0.0000 0.2500 (  2029 PWs)   bands (ev):

    -7.4499  10.0971  12.9296  13.3000

          k = 0.3750 0.1250-0.1250 (  2040 PWs)   bands (ev):

    -6.4402   7.4919  10.7924  13.5134

          k = 0.1250-0.1250 0.3750 (  2040 PWs)   bands (ev):

    -6.4223   9.0975   9.2184  12.8855

          k = 0.1250 0.1250-0.3750 (  2040 PWs)   bands (ev):

    -6.4268   7.7548  11.4024  11.9357

          k = 0.5000 0.2500-0.2500 (  2036 PWs)   bands (ev):

    -4.5837   3.9201   9.7200  12.0684

          k = 0.2500-0.2500 0.5000 (  2036 PWs)   bands (ev):

    -4.5637   4.8842   8.6618  11.7767

          k = 0.2500 0.2500-0.5000 (  2036 PWs)   bands (ev):

    -4.5645   4.0153   9.9664  11.2968

          k =-0.3750-0.6250 0.6250 (  2047 PWs)   bands (ev):

    -2.0079   0.3959   9.3026  11.2055

          k =-0.6250 0.6250-0.3750 (  2047 PWs)   bands (ev):

    -2.2441   1.4282   8.6275  10.7293

          k =-0.6250-0.6250 0.3750 (  2047 PWs)   bands (ev):

    -1.9942   0.4126   8.9579  11.4360

          k =-0.2500-0.5000 0.5000 (  2042 PWs)   bands (ev):

    -2.9135   1.5333   9.2713  11.3210

          k =-0.5000 0.5000-0.2500 (  2042 PWs)   bands (ev):

    -3.0008   2.4828   9.1068  10.1575

          k =-0.5000-0.5000 0.2500 (  2042 PWs)   bands (ev):

    -2.9279   1.5162   8.5946  12.3049

          k =-0.1250-0.3750 0.3750 (  2046 PWs)   bands (ev):

    -5.2817   5.2821   9.6560  12.3562

          k =-0.3750 0.3750-0.1250 (  2046 PWs)   bands (ev):

    -5.2728   6.4715   9.9239  10.2457

          k =-0.3750-0.3750 0.1250 (  2046 PWs)   bands (ev):

    -5.3006   5.1044   9.0893  13.7686

          k =-0.2500 0.2500 0.0000 (  2047 PWs)   bands (ev):

    -6.8606  10.5117  10.6779  11.4418

          k =-0.2500-0.2500 0.0000 (  2047 PWs)   bands (ev):

    -6.8801   8.0433  10.9175  15.4213

          k = 0.0000 0.0000 0.5000 (  2045 PWs)   bands (ev):

    -5.6932   8.2074   9.5850  10.4250

          k = 0.6250 0.1250-0.1250 (  2043 PWs)   bands (ev):

    -4.1545   5.2321   8.6444  10.0597

          k = 0.1250-0.1250 0.6250 (  2043 PWs)   bands (ev):

    -4.1216   6.4603   7.5651   9.3128

          k = 0.1250 0.1250-0.6250 (  2043 PWs)   bands (ev):

    -4.1208   5.8183   7.9207   9.6362

          k =-0.2500-0.7500 0.7500 (  2057 PWs)   bands (ev):

    -1.8295   2.2042   7.3816   9.2306

          k =-0.7500 0.7500-0.2500 (  2057 PWs)   bands (ev):

    -1.8960   3.1904   7.5212   7.6736

          k =-0.7500-0.7500 0.2500 (  2057 PWs)   bands (ev):

    -1.7982   2.4343   6.4485   9.6879

          k =-0.1250-0.6250 0.6250 (  2047 PWs)   bands (ev):

    -1.0032   1.3938   6.2776   9.7774

          k =-0.6250 0.6250-0.1250 (  2047 PWs)   bands (ev):

    -1.2830   2.6054   6.4895   8.0791

          k =-0.6250-0.6250 0.1250 (  2047 PWs)   bands (ev):

    -0.9651   1.3561   5.5849  10.5664

          k =-0.5000 0.5000 0.0000 (  2029 PWs)   bands (ev):

    -3.4768   6.0396   6.1216   9.0418

          k =-0.5000-0.5000 0.0000 (  2029 PWs)   bands (ev):

    -3.4778   3.9743   6.1771  12.1225

          k = 0.0000 0.0000 0.7500 (  2052 PWs)   bands (ev):

    -2.8487   5.3681   6.7832   8.6178

          k =-0.1250-0.8750 0.8750 (  2051 PWs)   bands (ev):

    -0.8764   2.5793   6.7341   8.0173

          k =-0.8750 0.8750-0.1250 (  2051 PWs)   bands (ev):

    -0.8755   3.2580   6.6107   6.9505

          k =-0.8750-0.8750 0.1250 (  2051 PWs)   bands (ev):

    -0.8383   3.2813   5.1917   8.4404

          k =-0.7500 0.7500 0.0000 (  2065 PWs)   bands (ev):

     0.2839   2.7075   4.7571   7.0949

          k =-0.7500-0.7500 0.0000 (  2065 PWs)   bands (ev):

     1.3254   1.3541   3.4347   9.1265

          k = 0.0000 0.0000-1.0000 (  2044 PWs)   bands (ev):

     0.4241   1.5416   6.2737   8.0033

          k = 0.5000 0.2500 0.0000 (  2050 PWs)   bands (ev):

    -5.1553   5.8693   8.4805  12.6016

          k = 0.0000-0.5000-0.2500 (  2050 PWs)   bands (ev):

    -5.1391   6.6493   8.2417  11.6017

          k = 0.2500 0.0000 0.5000 (  2050 PWs)   bands (ev):

    -5.1246   6.8630   8.0367  11.2912

          k =-0.3750-0.6250 0.8750 (  2049 PWs)   bands (ev):

    -3.0572   3.1281   7.1683  10.9623

          k = 0.8750 0.3750 0.6250 (  2049 PWs)   bands (ev):

    -3.0502   3.2155   7.9648   9.8382

          k =-0.8750 0.3750-0.6250 (  2049 PWs)   bands (ev):

    -3.0771   4.3048   6.2360  10.5271

          k =-0.6250 0.8750-0.3750 (  2049 PWs)   bands (ev):

    -3.0554   4.1468   6.6936   9.9600

          k =-0.6250-0.8750 0.3750 (  2049 PWs)   bands (ev):

    -3.0292   3.3405   7.4166  10.0901

          k =-0.2500-0.5000 0.7500 (  2036 PWs)   bands (ev):

    -0.6845   0.3776   7.0895   9.9358

          k = 0.7500 0.2500 0.5000 (  2036 PWs)   bands (ev):

    -0.6958   0.3421   8.4010   8.6363

          k =-0.7500 0.2500-0.5000 (  2036 PWs)   bands (ev):

    -1.2566   1.8238   6.0804  10.0843

          k =-0.2500-0.7500 1.0000 (  2051 PWs)   bands (ev):

    -2.3564   3.7771   6.8343   8.8160

          k = 1.0000 0.2500 0.7500 (  2051 PWs)   bands (ev):

    -2.3711   4.3165   6.7362   8.2530

          k =-0.7500 1.0000-0.2500 (  2051 PWs)   bands (ev):

    -2.3276   4.8936   5.9323   8.1139

          k =-0.1250-0.6250 0.8750 (  2055 PWs)   bands (ev):

     0.1035   1.7481   5.3690   7.8452

          k = 0.8750 0.1250 0.6250 (  2055 PWs)   bands (ev):

     0.0306   1.7918   6.0315   7.1985

          k =-0.8750 0.1250-0.6250 (  2055 PWs)   bands (ev):

    -0.2611   3.1528   4.2607   7.9064

          k =-0.6250 0.8750-0.1250 (  2055 PWs)   bands (ev):

    -0.2341   3.0110   5.6315   6.3118

          k =-0.6250-0.8750 0.1250 (  2055 PWs)   bands (ev):

     0.0581   2.1884   4.6083   8.0854

          k = 0.7500 0.0000 0.5000 (  2054 PWs)   bands (ev):

    -0.9241   3.0697   4.7524   8.5500

          k =-0.5000 0.7500 0.0000 (  2054 PWs)   bands (ev):

    -1.0328   4.2887   4.8993   6.8704

          k =-0.5000-0.7500 0.0000 (  2054 PWs)   bands (ev):

    -0.7932   2.4812   4.6302   9.1979

          k = 0.0000 1.0000-0.2500 (  2056 PWs)   bands (ev):

     1.1125   1.1125   6.5177   6.5177

          k = 0.2500 0.0000-1.0000 (  2056 PWs)   bands (ev):

     0.7208   2.0126   5.2206   6.9849

          k = 0.0000 1.0000-0.5000 (  2048 PWs)   bands (ev):

     1.5687   1.5687   5.4622   5.4622

!    total energy              =     -35.58418752 Ry
     Harris-Foulkes estimate   =     -35.58418783 Ry
     estimated scf accuracy    <       0.00000064 Ry

     total all-electron energy =      -151.143184 Ry

     The total energy is the sum of the following terms:

     one-electron contribution =       8.91899394 Ry
     hartree contribution      =       1.90077832 Ry
     xc contribution           =      -8.46475912 Ry
     ewald contribution        =     -25.86250914 Ry
     one-center paw contrib.   =     -12.07669153 Ry

     convergence has been achieved in   6 iterations

     Forces acting on atoms (Ry/au):

     atom    1 type  1   force =    -0.00000000   -0.00000000   -0.25447852
     atom    2 type  1   force =     0.00000000    0.00000000    0.25447852

     Total force =     0.359887     Total SCF correction =     0.000224

     Writing output data file diamond.save

     init_run     :      3.36s CPU      3.30s WALL (       1 calls)
     electrons    :     33.18s CPU     31.69s WALL (       1 calls)
     forces       :      0.63s CPU      0.51s WALL (       1 calls)

     Called by init_run:
     wfcinit      :      2.57s CPU      2.48s WALL (       1 calls)
     potinit      :      0.05s CPU      0.05s WALL (       1 calls)

     Called by electrons:
     c_bands      :     28.36s CPU     26.90s WALL (       6 calls)
     sum_band     :      4.27s CPU      4.15s WALL (       6 calls)
     v_of_rho     :      0.07s CPU      0.08s WALL (       7 calls)
     newd         :      0.22s CPU      0.22s WALL (       7 calls)
     mix_rho      :      0.09s CPU      0.10s WALL (       6 calls)

     Called by c_bands:
     init_us_2    :      1.51s CPU      1.62s WALL (    1330 calls)
     cegterg      :     26.65s CPU     24.13s WALL (     570 calls)

     Called by *egterg:
     h_psi        :     22.40s CPU     21.58s WALL (    2304 calls)
     s_psi        :      1.74s CPU      1.09s WALL (    2304 calls)
     g_psi        :      0.18s CPU      0.16s WALL (    1639 calls)
     cdiaghg      :      0.46s CPU      0.46s WALL (    2209 calls)

     Called by h_psi:
     add_vuspsi   :      1.82s CPU      1.16s WALL (    2304 calls)

     General routines
     calbec       :      2.86s CPU      1.69s WALL (    2969 calls)
     fft          :      0.07s CPU      0.07s WALL (      45 calls)
     fftw         :     18.05s CPU     18.68s WALL (   17992 calls)
     davcio       :      0.19s CPU      1.18s WALL (    1900 calls)


     PAW routines
     PAW_pot      :      0.21s CPU      0.21s WALL (       7 calls)
     PAW_ddot     :      0.06s CPU      0.07s WALL (      36 calls)
     PAW_symme    :      0.00s CPU      0.00s WALL (      13 calls)

     PWSCF        :    37.60s CPU        36.11s WALL


   This run was terminated on:  21:37:51  26Mar2012            

=------------------------------------------------------------------------------=
   JOB DONE.
=------------------------------------------------------------------------------=
