
     Program PWSCF v.4.3.2      starts on 26Mar2012 at 21:53:24 

     This program is part of the open-source Quantum ESPRESSO suite
     for quantum simulation of materials; please cite
         "P. Giannozzi et al., J. Phys.:Condens. Matter 21 395502 (2009);
          URL http://www.quantum-espresso.org", 
     in publications or presentations arising from this work. More details at
     http://www.quantum-espresso.org/wiki/index.php/Citing_Quantum-ESPRESSO

     Current dimensions of program PWSCF are:
     Max number of different atomic species (ntypx) = 10
     Max number of k-points (npk) =  40000
     Max angular momentum in pseudopotentials (lmaxx) =  3
     Waiting for input...
     Reading input from stdin

     G-vector sticks info
     --------------------
     sticks:   dense  smooth     PW     G-vecs:    dense   smooth      PW
     Sum         913     913    271                18149    18149    2975



     bravais-lattice index     =            2
     lattice parameter (alat)  =       6.8800  a.u.
     unit-cell volume          =      81.4152 (a.u.)^3
     number of atoms/cell      =            2
     number of atomic types    =            1
     number of electrons       =         8.00
     number of Kohn-Sham states=            4
     kinetic-energy cutoff     =     140.0000  Ry
     charge density cutoff     =     560.0000  Ry
     convergence threshold     =      1.0E-06
     mixing beta               =       0.7000
     number of iterations used =            8  plain     mixing
     Exchange-correlation      =  SLA  PZ   NOGX NOGC ( 1 1 0 0 0)
     EXX-fraction              =        0.00

     celldm(1)=   6.880000  celldm(2)=   0.000000  celldm(3)=   0.000000
     celldm(4)=   0.000000  celldm(5)=   0.000000  celldm(6)=   0.000000

     crystal axes: (cart. coord. in units of alat)
               a(1) = (  -0.500000   0.000000   0.500000 )  
               a(2) = (   0.000000   0.500000   0.500000 )  
               a(3) = (  -0.500000   0.500000   0.000000 )  

     reciprocal axes: (cart. coord. in units 2 pi/alat)
               b(1) = ( -1.000000 -1.000000  1.000000 )  
               b(2) = (  1.000000  1.000000  1.000000 )  
               b(3) = ( -1.000000  1.000000 -1.000000 )  


     PseudoPot. # 1 for  C read from file:
     /home/mullspace/Documents/espresso-4.3.2/pseudo/C.pz-kjpaw.UPF
     MD5 check sum: 414e6e825ae75add557e798061b49a04
     Pseudo is Projector augmented-wave + core cor, Zval =  4.0
     Generated using "atomic" code by A. Dal Corso (espresso distribution)
     Shape of augmentation charge: BESSEL
     Using radial grid of 1073 points,  4 beta functions with: 
                l(1) =   0
                l(2) =   0
                l(3) =   1
                l(4) =   1
     Q(r) pseudized with 0 coefficients 


     atomic species   valence    mass     pseudopotential
        C              4.00    12.01070      C( 1.00)

      8 Sym.Ops. (with inversion)


   Cartesian axes

     site n.     atom                  positions (alat units)
         1           C   tau(   1) = (   0.0000000   0.0000000   0.0500000  )
         2           C   tau(   2) = (   0.2500000   0.2500000   0.2500000  )

     number of k points=    95
                       cart. coord. in units 2pi/alat
        k(    1) = (   0.0000000   0.0000000   0.0000000), wk =   0.0039063
        k(    2) = (  -0.1250000   0.1250000  -0.1250000), wk =   0.0156250
        k(    3) = (  -0.2500000   0.2500000  -0.2500000), wk =   0.0156250
        k(    4) = (  -0.3750000   0.3750000  -0.3750000), wk =   0.0156250
        k(    5) = (   0.5000000  -0.5000000   0.5000000), wk =   0.0078125
        k(    6) = (   0.0000000   0.2500000   0.0000000), wk =   0.0156250
        k(    7) = (  -0.1250000   0.3750000  -0.1250000), wk =   0.0312500
        k(    8) = (  -0.2500000   0.5000000  -0.2500000), wk =   0.0312500
        k(    9) = (   0.6250000  -0.3750000   0.6250000), wk =   0.0312500
        k(   10) = (   0.5000000  -0.2500000   0.5000000), wk =   0.0312500
        k(   11) = (   0.3750000  -0.1250000   0.3750000), wk =   0.0312500
        k(   12) = (   0.2500000   0.0000000   0.2500000), wk =   0.0312500
        k(   13) = (   0.0000000   0.5000000   0.0000000), wk =   0.0156250
        k(   14) = (  -0.1250000   0.6250000  -0.1250000), wk =   0.0312500
        k(   15) = (   0.7500000  -0.2500000   0.7500000), wk =   0.0312500
        k(   16) = (   0.6250000  -0.1250000   0.6250000), wk =   0.0312500
        k(   17) = (   0.5000000   0.0000000   0.5000000), wk =   0.0312500
        k(   18) = (   0.0000000   0.7500000   0.0000000), wk =   0.0156250
        k(   19) = (   0.8750000  -0.1250000   0.8750000), wk =   0.0312500
        k(   20) = (   0.7500000   0.0000000   0.7500000), wk =   0.0312500
        k(   21) = (   0.0000000  -1.0000000   0.0000000), wk =   0.0078125
        k(   22) = (  -0.2500000   0.5000000   0.0000000), wk =   0.0156250
        k(   23) = (   0.6250000  -0.3750000   0.8750000), wk =   0.0312500
        k(   24) = (   0.5000000  -0.2500000   0.7500000), wk =   0.0312500
        k(   25) = (   0.7500000  -0.2500000   1.0000000), wk =   0.0156250
        k(   26) = (   0.6250000  -0.1250000   0.8750000), wk =   0.0312500
        k(   27) = (   0.5000000   0.0000000   0.7500000), wk =   0.0312500
        k(   28) = (  -0.2500000  -1.0000000   0.0000000), wk =   0.0156250
        k(   29) = (  -0.5000000  -1.0000000   0.0000000), wk =   0.0156250
        k(   30) = (  -0.1250000  -0.1250000  -0.1250000), wk =   0.0156250
        k(   31) = (  -0.2500000  -0.2500000  -0.2500000), wk =   0.0156250
        k(   32) = (  -0.3750000  -0.3750000  -0.3750000), wk =   0.0156250
        k(   33) = (   0.5000000   0.5000000   0.5000000), wk =   0.0078125
        k(   34) = (   0.0000000   0.0000000   0.2500000), wk =   0.0078125
        k(   35) = (  -0.1250000  -0.3750000  -0.1250000), wk =   0.0312500
        k(   36) = (   0.1250000  -0.1250000   0.3750000), wk =   0.0156250
        k(   37) = (   0.1250000   0.1250000  -0.3750000), wk =   0.0156250
        k(   38) = (  -0.2500000  -0.5000000  -0.2500000), wk =   0.0312500
        k(   39) = (   0.2500000  -0.2500000   0.5000000), wk =   0.0156250
        k(   40) = (   0.2500000   0.2500000  -0.5000000), wk =   0.0156250
        k(   41) = (   0.6250000   0.3750000   0.6250000), wk =   0.0312500
        k(   42) = (  -0.6250000   0.6250000  -0.3750000), wk =   0.0156250
        k(   43) = (  -0.6250000  -0.6250000   0.3750000), wk =   0.0156250
        k(   44) = (   0.5000000   0.2500000   0.5000000), wk =   0.0312500
        k(   45) = (  -0.5000000   0.5000000  -0.2500000), wk =   0.0156250
        k(   46) = (  -0.5000000  -0.5000000   0.2500000), wk =   0.0156250
        k(   47) = (   0.3750000   0.1250000   0.3750000), wk =   0.0312500
        k(   48) = (  -0.3750000   0.3750000  -0.1250000), wk =   0.0156250
        k(   49) = (  -0.3750000  -0.3750000   0.1250000), wk =   0.0156250
        k(   50) = (  -0.2500000   0.2500000   0.0000000), wk =   0.0078125
        k(   51) = (  -0.2500000  -0.2500000   0.0000000), wk =   0.0078125
        k(   52) = (   0.0000000   0.0000000   0.5000000), wk =   0.0078125
        k(   53) = (  -0.1250000  -0.6250000  -0.1250000), wk =   0.0312500
        k(   54) = (   0.1250000  -0.1250000   0.6250000), wk =   0.0156250
        k(   55) = (   0.1250000   0.1250000  -0.6250000), wk =   0.0156250
        k(   56) = (   0.7500000   0.2500000   0.7500000), wk =   0.0312500
        k(   57) = (  -0.7500000   0.7500000  -0.2500000), wk =   0.0156250
        k(   58) = (  -0.7500000  -0.7500000   0.2500000), wk =   0.0156250
        k(   59) = (   0.6250000   0.1250000   0.6250000), wk =   0.0312500
        k(   60) = (  -0.6250000   0.6250000  -0.1250000), wk =   0.0156250
        k(   61) = (  -0.6250000  -0.6250000   0.1250000), wk =   0.0156250
        k(   62) = (  -0.5000000   0.5000000   0.0000000), wk =   0.0078125
        k(   63) = (  -0.5000000  -0.5000000   0.0000000), wk =   0.0078125
        k(   64) = (   0.0000000   0.0000000   0.7500000), wk =   0.0078125
        k(   65) = (   0.8750000   0.1250000   0.8750000), wk =   0.0312500
        k(   66) = (  -0.8750000   0.8750000  -0.1250000), wk =   0.0156250
        k(   67) = (  -0.8750000  -0.8750000   0.1250000), wk =   0.0156250
        k(   68) = (  -0.7500000   0.7500000   0.0000000), wk =   0.0078125
        k(   69) = (  -0.7500000  -0.7500000   0.0000000), wk =   0.0078125
        k(   70) = (   0.0000000   0.0000000  -1.0000000), wk =   0.0039063
        k(   71) = (   0.0000000  -0.5000000  -0.2500000), wk =   0.0312500
        k(   72) = (   0.2500000   0.0000000   0.5000000), wk =   0.0312500
        k(   73) = (   0.2500000   0.5000000   0.0000000), wk =   0.0156250
        k(   74) = (   0.8750000   0.3750000   0.6250000), wk =   0.0312500
        k(   75) = (  -0.8750000   0.3750000  -0.6250000), wk =   0.0312500
        k(   76) = (  -0.6250000   0.8750000  -0.3750000), wk =   0.0312500
        k(   77) = (  -0.6250000  -0.8750000   0.3750000), wk =   0.0312500
        k(   78) = (  -0.6250000  -0.3750000  -0.8750000), wk =   0.0312500
        k(   79) = (   0.7500000   0.2500000   0.5000000), wk =   0.0156250
        k(   80) = (  -0.7500000   0.2500000  -0.5000000), wk =   0.0156250
        k(   81) = (  -0.5000000  -0.7500000   0.2500000), wk =   0.0312500
        k(   82) = (   1.0000000   0.2500000   0.7500000), wk =   0.0312500
        k(   83) = (  -0.7500000   1.0000000  -0.2500000), wk =   0.0312500
        k(   84) = (  -0.7500000  -0.2500000  -1.0000000), wk =   0.0156250
        k(   85) = (   0.8750000   0.1250000   0.6250000), wk =   0.0312500
        k(   86) = (  -0.8750000   0.1250000  -0.6250000), wk =   0.0312500
        k(   87) = (  -0.6250000   0.8750000  -0.1250000), wk =   0.0312500
        k(   88) = (  -0.6250000  -0.8750000   0.1250000), wk =   0.0312500
        k(   89) = (  -0.6250000  -0.1250000  -0.8750000), wk =   0.0312500
        k(   90) = (   0.7500000   0.0000000   0.5000000), wk =   0.0312500
        k(   91) = (  -0.5000000   0.7500000   0.0000000), wk =   0.0156250
        k(   92) = (  -0.5000000  -0.7500000   0.0000000), wk =   0.0156250
        k(   93) = (   0.0000000   1.0000000  -0.2500000), wk =   0.0156250
        k(   94) = (   0.2500000   0.0000000  -1.0000000), wk =   0.0156250
        k(   95) = (   0.0000000   1.0000000  -0.5000000), wk =   0.0078125

     Dense  grid:    18149 G-vectors     FFT dimensions: (  40,  40,  40)

     Largest allocated arrays     est. size (Mb)     dimensions
        Kohn-Sham Wavefunctions         0.14 Mb     (   2285,    4)
        NL pseudopotentials             0.56 Mb     (   2285,   16)
        Each V/rho on FFT grid          0.98 Mb     (  64000)
        Each G-vector array             0.14 Mb     (  18149)
        G-vector shells                 0.00 Mb     (    225)
     Largest temporary arrays     est. size (Mb)     dimensions
        Auxiliary wavefunctions         0.56 Mb     (   2285,   16)
        Each subspace H/S matrix        0.00 Mb     (  16,  16)
        Each <psi_i|beta_j> matrix      0.00 Mb     (     16,    4)
        Arrays for rho mixing           7.81 Mb     (  64000,   8)

     Initial potential from superposition of free atoms

     starting charge    7.99993, renormalised to    8.00000
     Starting wfc are    8 atomic wfcs

     total cpu time spent up to now is        4.5 secs

     per-process dynamical memory:    12.5 Mb

     Self-consistent Calculation

     iteration #  1     ecut=   140.00 Ry     beta=0.70
     Davidson diagonalization with overlap
     ethr =  1.00E-02,  avg # of iterations =  2.6

     Threshold (ethr) on eigenvalues was too large:
     Diagonalizing with lowered threshold

     Davidson diagonalization with overlap
     ethr =  9.31E-04,  avg # of iterations =  2.9

     total cpu time spent up to now is       17.4 secs

     total energy              =     -35.57064047 Ry
     Harris-Foulkes estimate   =     -35.63123084 Ry
     estimated scf accuracy    <       0.11303897 Ry

     iteration #  2     ecut=   140.00 Ry     beta=0.70
     Davidson diagonalization with overlap
     ethr =  1.41E-03,  avg # of iterations =  1.0

     total cpu time spent up to now is       22.3 secs

     total energy              =     -35.57343276 Ry
     Harris-Foulkes estimate   =     -35.57599859 Ry
     estimated scf accuracy    <       0.00533381 Ry

     iteration #  3     ecut=   140.00 Ry     beta=0.70
     Davidson diagonalization with overlap
     ethr =  6.67E-05,  avg # of iterations =  3.2

     total cpu time spent up to now is       30.9 secs

     total energy              =     -35.58126989 Ry
     Harris-Foulkes estimate   =     -35.58296490 Ry
     estimated scf accuracy    <       0.00272615 Ry

     iteration #  4     ecut=   140.00 Ry     beta=0.70
     Davidson diagonalization with overlap
     ethr =  3.41E-05,  avg # of iterations =  3.1

     total cpu time spent up to now is       37.9 secs

     total energy              =     -35.58165874 Ry
     Harris-Foulkes estimate   =     -35.58192508 Ry
     estimated scf accuracy    <       0.00044699 Ry

     iteration #  5     ecut=   140.00 Ry     beta=0.70
     Davidson diagonalization with overlap
     ethr =  5.59E-06,  avg # of iterations =  2.7

     total cpu time spent up to now is       44.2 secs

     End of self-consistent calculation

          k = 0.0000 0.0000 0.0000 (  2229 PWs)   bands (ev):

    -8.5450   9.4129  12.4426  14.6174

          k =-0.1250 0.1250-0.1250 (  2265 PWs)   bands (ev):

    -8.1334   9.0792  10.3045  12.8539

          k =-0.2500 0.2500-0.2500 (  2259 PWs)   bands (ev):

    -6.9174   6.1905   8.3987  11.7363

          k =-0.3750 0.3750-0.3750 (  2271 PWs)   bands (ev):

    -5.0028   2.2690   7.8377  11.0720

          k = 0.5000-0.5000 0.5000 (  2276 PWs)   bands (ev):

    -3.3786  -0.0544   7.6303  10.8526

          k = 0.0000 0.2500 0.0000 (  2265 PWs)   bands (ev):

    -7.9987   8.3565  10.6567  12.5434

          k =-0.1250 0.3750-0.1250 (  2263 PWs)   bands (ev):

    -7.0512   7.7394   7.8948  10.6479

          k =-0.2500 0.5000-0.2500 (  2275 PWs)   bands (ev):

    -5.3572   3.8186   7.1777   9.8970

          k = 0.6250-0.3750 0.6250 (  2285 PWs)   bands (ev):

    -3.3457   0.6696   6.6439   9.7578

          k = 0.5000-0.2500 0.5000 (  2284 PWs)   bands (ev):

    -3.9512   1.4805   6.4462  10.2162

          k = 0.3750-0.1250 0.3750 (  2276 PWs)   bands (ev):

    -5.9903   5.0155   6.7007  11.0953

          k = 0.2500 0.0000 0.2500 (  2255 PWs)   bands (ev):

    -7.4534   7.3003   8.9960  12.0348

          k = 0.0000 0.5000 0.0000 (  2269 PWs)   bands (ev):

    -6.3819   6.1540   8.3390   9.5333

          k =-0.1250 0.6250-0.1250 (  2285 PWs)   bands (ev):

    -4.9493   5.2055   5.9510   8.1493

          k = 0.7500-0.2500 0.7500 (  2284 PWs)   bands (ev):

    -2.9800   2.4118   4.5183   7.9850

          k = 0.6250-0.1250 0.6250 (  2285 PWs)   bands (ev):

    -2.3913   1.6103   3.8217   8.5250

          k = 0.5000 0.0000 0.5000 (  2281 PWs)   bands (ev):

    -4.3185   3.4125   4.7539   9.5504

          k = 0.0000 0.7500 0.0000 (  2285 PWs)   bands (ev):

    -3.7774   3.2122   6.8007   7.1689

          k = 0.8750-0.1250 0.8750 (  2281 PWs)   bands (ev):

    -2.0129   1.7300   5.0400   6.7566

          k = 0.7500 0.0000 0.7500 (  2273 PWs)   bands (ev):

    -0.6862   0.6242   3.3819   7.2402

          k = 0.0000-1.0000 0.0000 (  2272 PWs)   bands (ev):

    -0.4002  -0.4002   6.3342   6.3342

          k =-0.2500 0.5000 0.0000 (  2282 PWs)   bands (ev):

    -5.8630   6.8017   7.1362   7.4655

          k = 0.6250-0.3750 0.8750 (  2281 PWs)   bands (ev):

    -4.0106   3.2576   6.3795   6.9262

          k = 0.5000-0.2500 0.7500 (  2270 PWs)   bands (ev):

    -2.4528   0.9674   5.6396   7.3766

          k = 0.7500-0.2500 1.0000 (  2285 PWs)   bands (ev):

    -3.3539   3.9143   5.4895   5.7351

          k = 0.6250-0.1250 0.8750 (  2276 PWs)   bands (ev):

    -1.5285   2.1255   3.5351   6.0044

          k = 0.5000 0.0000 0.7500 (  2276 PWs)   bands (ev):

    -2.0109   1.9792   3.4717   7.1042

          k =-0.2500-1.0000 0.0000 (  2280 PWs)   bands (ev):

    -0.3284   0.1489   5.1277   5.5073

          k =-0.5000-1.0000 0.0000 (  2268 PWs)   bands (ev):

    -0.2339   1.1481   3.4647   4.8786

          k =-0.1250-0.1250-0.1250 (  2265 PWs)   bands (ev):

    -8.1351   8.0909  11.3106  13.1636

          k =-0.2500-0.2500-0.2500 (  2259 PWs)   bands (ev):

    -6.9164   4.9079   9.7873  11.8508

          k =-0.3750-0.3750-0.3750 (  2271 PWs)   bands (ev):

    -4.9348   1.2955   8.8504  11.0570

          k = 0.5000 0.5000 0.5000 (  2276 PWs)   bands (ev):

    -2.7907  -1.4471   8.5380  10.7953

          k = 0.0000 0.0000 0.2500 (  2265 PWs)   bands (ev):

    -7.9952   8.4805  11.0070  11.5521

          k =-0.1250-0.3750-0.1250 (  2263 PWs)   bands (ev):

    -7.0523   5.9572   9.2184  11.6806

          k = 0.1250-0.1250 0.3750 (  2263 PWs)   bands (ev):

    -7.0446   7.5469   7.6937  11.0670

          k = 0.1250 0.1250-0.3750 (  2263 PWs)   bands (ev):

    -7.0443   6.2910   9.5988  10.3052

          k =-0.2500-0.5000-0.2500 (  2275 PWs)   bands (ev):

    -5.3246   2.6381   8.2100  10.3628

          k = 0.2500-0.2500 0.5000 (  2275 PWs)   bands (ev):

    -5.3437   3.6719   7.1869  10.0557

          k = 0.2500 0.2500-0.5000 (  2275 PWs)   bands (ev):

    -5.3166   2.7852   8.3126   9.7156

          k = 0.6250 0.3750 0.6250 (  2285 PWs)   bands (ev):

    -2.9752  -0.5828   7.7946   9.5885

          k =-0.6250 0.6250-0.3750 (  2285 PWs)   bands (ev):

    -3.3297   0.6125   7.1484   9.1077

          k =-0.6250-0.6250 0.3750 (  2285 PWs)   bands (ev):

    -2.9772  -0.5359   7.4180   9.8351

          k = 0.5000 0.2500 0.5000 (  2284 PWs)   bands (ev):

    -3.7974   0.4656   7.7515   9.7016

          k =-0.5000 0.5000-0.2500 (  2284 PWs)   bands (ev):

    -3.9698   1.5398   7.5739   8.5929

          k =-0.5000-0.5000 0.2500 (  2284 PWs)   bands (ev):

    -3.7896   0.4136   7.1246  10.6212

          k = 0.3750 0.1250 0.3750 (  2276 PWs)   bands (ev):

    -5.9809   3.9468   8.1093  10.6431

          k =-0.3750 0.3750-0.1250 (  2276 PWs)   bands (ev):

    -5.9990   5.1757   8.3046   8.6774

          k =-0.3750-0.3750 0.1250 (  2276 PWs)   bands (ev):

    -5.9851   3.7088   7.6390  11.9504

          k =-0.2500 0.2500 0.0000 (  2255 PWs)   bands (ev):

    -7.4549   8.9287   8.9799   9.7712

          k =-0.2500-0.2500 0.0000 (  2255 PWs)   bands (ev):

    -7.4589   6.4476   9.3541  13.4509

          k = 0.0000 0.0000 0.5000 (  2269 PWs)   bands (ev):

    -6.3668   6.7896   7.8063   8.9285

          k =-0.1250-0.6250-0.1250 (  2285 PWs)   bands (ev):

    -4.9301   3.7637   7.2679   8.5460

          k = 0.1250-0.1250 0.6250 (  2285 PWs)   bands (ev):

    -4.9215   4.9993   6.2078   7.8434

          k = 0.1250 0.1250-0.6250 (  2285 PWs)   bands (ev):

    -4.9124   4.4665   6.3762   8.2056

          k = 0.7500 0.2500 0.7500 (  2284 PWs)   bands (ev):

    -2.7799   0.9744   6.0692   7.8081

          k =-0.7500 0.7500-0.2500 (  2284 PWs)   bands (ev):

    -2.9390   2.0942   6.1627   6.3247

          k =-0.7500-0.7500 0.2500 (  2284 PWs)   bands (ev):

    -2.7800   1.2988   5.0723   8.2496

          k = 0.6250 0.1250 0.6250 (  2285 PWs)   bands (ev):

    -2.0848   0.3265   5.0282   8.3029

          k =-0.6250 0.6250-0.1250 (  2285 PWs)   bands (ev):

    -2.4618   1.6841   5.2185   6.6596

          k =-0.6250-0.6250 0.1250 (  2285 PWs)   bands (ev):

    -1.9804   0.2143   4.3495   9.0484

          k =-0.5000 0.5000 0.0000 (  2281 PWs)   bands (ev):

    -4.3702   4.8069   4.8358   7.5188

          k =-0.5000-0.5000 0.0000 (  2281 PWs)   bands (ev):

    -4.2848   2.5393   5.0073  10.4621

          k = 0.0000 0.0000 0.7500 (  2285 PWs)   bands (ev):

    -3.7447   3.8965   5.5027   7.2747

          k = 0.8750 0.1250 0.8750 (  2281 PWs)   bands (ev):

    -1.8982   1.2094   5.5712   6.7118

          k =-0.8750 0.8750-0.1250 (  2281 PWs)   bands (ev):

    -1.9746   1.9793   5.3446   5.7871

          k =-0.8750-0.8750 0.1250 (  2281 PWs)   bands (ev):

    -1.9143   1.9583   4.0643   7.1114

          k =-0.7500 0.7500 0.0000 (  2273 PWs)   bands (ev):

    -1.0958   1.6177   3.8376   5.7785

          k =-0.7500-0.7500 0.0000 (  2273 PWs)   bands (ev):

    -0.0128   0.1499   2.5579   7.7373

          k = 0.0000 0.0000-1.0000 (  2272 PWs)   bands (ev):

    -0.8816   0.5288   5.0406   6.7117

          k = 0.0000-0.5000-0.2500 (  2282 PWs)   bands (ev):

    -5.8544   5.1635   6.8482   9.9503

          k = 0.2500 0.0000 0.5000 (  2282 PWs)   bands (ev):

    -5.8428   5.4383   6.5922   9.6390

          k = 0.2500 0.5000 0.0000 (  2282 PWs)   bands (ev):

    -5.8511   4.3526   7.1276  10.8820

          k = 0.8750 0.3750 0.6250 (  2281 PWs)   bands (ev):

    -3.9208   1.9699   6.5973   8.3292

          k =-0.8750 0.3750-0.6250 (  2281 PWs)   bands (ev):

    -3.9851   3.1465   4.8433   9.0140

          k =-0.6250 0.8750-0.3750 (  2281 PWs)   bands (ev):

    -3.9667   2.9705   5.3477   8.4298

          k =-0.6250-0.8750 0.3750 (  2281 PWs)   bands (ev):

    -3.9094   2.1469   5.9830   8.6046

          k =-0.6250-0.3750-0.8750 (  2281 PWs)   bands (ev):

    -3.8992   1.8265   5.8459   9.4151

          k = 0.7500 0.2500 0.5000 (  2270 PWs)   bands (ev):

    -1.8475  -0.5868   7.0307   7.1903

          k =-0.7500 0.2500-0.5000 (  2270 PWs)   bands (ev):

    -2.4474   1.0144   4.6654   8.6307

          k =-0.5000-0.7500 0.2500 (  2270 PWs)   bands (ev):

    -1.8230  -0.5493   5.6932   8.4916

          k = 1.0000 0.2500 0.7500 (  2285 PWs)   bands (ev):

    -3.3038   2.8735   5.5056   6.9556

          k =-0.7500 1.0000-0.2500 (  2285 PWs)   bands (ev):

    -3.2758   3.4538   4.7152   6.8322

          k =-0.7500-0.2500-1.0000 (  2285 PWs)   bands (ev):

    -3.2517   2.3006   5.6161   7.4965

          k = 0.8750 0.1250 0.6250 (  2276 PWs)   bands (ev):

    -1.1150   0.5456   4.9118   5.9546

          k =-0.8750 0.1250-0.6250 (  2276 PWs)   bands (ev):

    -1.4570   1.8257   3.2868   6.6547

          k =-0.6250 0.8750-0.1250 (  2276 PWs)   bands (ev):

    -1.4844   1.8817   4.4434   5.1623

          k =-0.6250-0.8750 0.1250 (  2276 PWs)   bands (ev):

    -1.1186   0.9884   3.4800   6.8238

          k =-0.6250-0.1250-0.8750 (  2276 PWs)   bands (ev):

    -0.9979   0.4513   4.2447   6.6083

          k = 0.7500 0.0000 0.5000 (  2276 PWs)   bands (ev):

    -2.0213   1.7589   3.7186   7.2086

          k =-0.5000 0.7500 0.0000 (  2276 PWs)   bands (ev):

    -2.2008   3.0507   3.8747   5.5603

          k =-0.5000-0.7500 0.0000 (  2276 PWs)   bands (ev):

    -1.7980   1.0766   3.5955   7.8307

          k = 0.0000 1.0000-0.2500 (  2280 PWs)   bands (ev):

    -0.1158  -0.1158   5.3636   5.3636

          k = 0.2500 0.0000-1.0000 (  2280 PWs)   bands (ev):

    -0.6289   0.9219   4.0811   5.8199

          k = 0.0000 1.0000-0.5000 (  2268 PWs)   bands (ev):

     0.2440   0.2440   4.4507   4.4507

!    total energy              =     -35.58174431 Ry
     Harris-Foulkes estimate   =     -35.58174407 Ry
     estimated scf accuracy    <       0.00000037 Ry

     total all-electron energy =      -151.140741 Ry

     The total energy is the sum of the following terms:

     one-electron contribution =       7.71638137 Ry
     hartree contribution      =       2.01327980 Ry
     xc contribution           =      -8.28230502 Ry
     ewald contribution        =     -24.96032859 Ry
     one-center paw contrib.   =     -12.06877187 Ry

     convergence has been achieved in   5 iterations

     Forces acting on atoms (Ry/au):

     atom    1 type  1   force =     0.00000000    0.00000000   -0.21137008
     atom    2 type  1   force =     0.00000000    0.00000000    0.21137008

     Total force =     0.298922     Total SCF correction =     0.000083

     Writing output data file diamond.save

     init_run     :      4.28s CPU      4.24s WALL (       1 calls)
     electrons    :     41.53s CPU     39.70s WALL (       1 calls)
     forces       :      0.72s CPU      0.55s WALL (       1 calls)

     Called by init_run:
     wfcinit      :      3.46s CPU      3.36s WALL (       1 calls)
     potinit      :      0.06s CPU      0.06s WALL (       1 calls)

     Called by electrons:
     c_bands      :     35.35s CPU     33.56s WALL (       6 calls)
     sum_band     :      5.69s CPU      5.57s WALL (       6 calls)
     v_of_rho     :      0.08s CPU      0.09s WALL (       6 calls)
     newd         :      0.22s CPU      0.22s WALL (       6 calls)
     mix_rho      :      0.06s CPU      0.07s WALL (       6 calls)

     Called by c_bands:
     init_us_2    :      1.66s CPU      1.69s WALL (    1330 calls)
     cegterg      :     33.54s CPU     30.59s WALL (     570 calls)

     Called by *egterg:
     h_psi        :     29.89s CPU     28.86s WALL (    2148 calls)
     s_psi        :      1.93s CPU      1.15s WALL (    2148 calls)
     g_psi        :      0.18s CPU      0.17s WALL (    1483 calls)
     cdiaghg      :      0.31s CPU      0.40s WALL (    1958 calls)

     Called by h_psi:
     add_vuspsi   :      2.02s CPU      1.19s WALL (    2148 calls)

     General routines
     calbec       :      3.02s CPU      1.79s WALL (    2813 calls)
     fft          :      0.10s CPU      0.10s WALL (      42 calls)
     fftw         :     25.66s CPU     26.29s WALL (   17300 calls)
     davcio       :      0.23s CPU      1.33s WALL (    1900 calls)


     PAW routines
     PAW_pot      :      0.17s CPU      0.17s WALL (       6 calls)
     PAW_ddot     :      0.04s CPU      0.05s WALL (      22 calls)
     PAW_symme    :      0.00s CPU      0.00s WALL (      12 calls)

     PWSCF        :    46.97s CPU        45.12s WALL


   This run was terminated on:  21:54: 9  26Mar2012            

=------------------------------------------------------------------------------=
   JOB DONE.
=------------------------------------------------------------------------------=
