
     Program PWSCF v.4.3.2      starts on 26Mar2012 at 21:36:38 

     This program is part of the open-source Quantum ESPRESSO suite
     for quantum simulation of materials; please cite
         "P. Giannozzi et al., J. Phys.:Condens. Matter 21 395502 (2009);
          URL http://www.quantum-espresso.org", 
     in publications or presentations arising from this work. More details at
     http://www.quantum-espresso.org/wiki/index.php/Citing_Quantum-ESPRESSO

     Current dimensions of program PWSCF are:
     Max number of different atomic species (ntypx) = 10
     Max number of k-points (npk) =  40000
     Max angular momentum in pseudopotentials (lmaxx) =  3
     Waiting for input...
     Reading input from stdin
     warning: symmetry operation #  5 not allowed.   fractional translation:
       0.2000000  0.2000000  0.3000000  in crystal coordinates
     warning: symmetry operation #  6 not allowed.   fractional translation:
       0.2000000  0.2000000  0.3000000  in crystal coordinates
     warning: symmetry operation # 25 not allowed.   fractional translation:
       0.2000000  0.2000000  0.3000000  in crystal coordinates
     warning: symmetry operation # 26 not allowed.   fractional translation:
       0.2000000  0.2000000  0.3000000  in crystal coordinates

     G-vector sticks info
     --------------------
     sticks:   dense  smooth     PW     G-vecs:    dense   smooth      PW
     Sum         847     847    253                16361    16361    2733



     bravais-lattice index     =            2
     lattice parameter (alat)  =       6.6300  a.u.
     unit-cell volume          =      72.8586 (a.u.)^3
     number of atoms/cell      =            2
     number of atomic types    =            1
     number of electrons       =         8.00
     number of Kohn-Sham states=            4
     kinetic-energy cutoff     =     140.0000  Ry
     charge density cutoff     =     560.0000  Ry
     convergence threshold     =      1.0E-06
     mixing beta               =       0.7000
     number of iterations used =            8  plain     mixing
     Exchange-correlation      =  SLA  PZ   NOGX NOGC ( 1 1 0 0 0)
     EXX-fraction              =        0.00

     celldm(1)=   6.630000  celldm(2)=   0.000000  celldm(3)=   0.000000
     celldm(4)=   0.000000  celldm(5)=   0.000000  celldm(6)=   0.000000

     crystal axes: (cart. coord. in units of alat)
               a(1) = (  -0.500000   0.000000   0.500000 )  
               a(2) = (   0.000000   0.500000   0.500000 )  
               a(3) = (  -0.500000   0.500000   0.000000 )  

     reciprocal axes: (cart. coord. in units 2 pi/alat)
               b(1) = ( -1.000000 -1.000000  1.000000 )  
               b(2) = (  1.000000  1.000000  1.000000 )  
               b(3) = ( -1.000000  1.000000 -1.000000 )  


     PseudoPot. # 1 for  C read from file:
     /home/mullspace/Documents/espresso-4.3.2/pseudo/C.pz-kjpaw.UPF
     MD5 check sum: 414e6e825ae75add557e798061b49a04
     Pseudo is Projector augmented-wave + core cor, Zval =  4.0
     Generated using "atomic" code by A. Dal Corso (espresso distribution)
     Shape of augmentation charge: BESSEL
     Using radial grid of 1073 points,  4 beta functions with: 
                l(1) =   0
                l(2) =   0
                l(3) =   1
                l(4) =   1
     Q(r) pseudized with 0 coefficients 


     atomic species   valence    mass     pseudopotential
        C              4.00    12.01070      C( 1.00)

      4 Sym.Ops. (no inversion)


   Cartesian axes

     site n.     atom                  positions (alat units)
         1           C   tau(   1) = (   0.0000000   0.0000000   0.0500000  )
         2           C   tau(   2) = (   0.2500000   0.2500000   0.2500000  )

     number of k points=    95
                       cart. coord. in units 2pi/alat
        k(    1) = (   0.0000000   0.0000000   0.0000000), wk =   0.0039063
        k(    2) = (  -0.1250000   0.1250000  -0.1250000), wk =   0.0156250
        k(    3) = (  -0.2500000   0.2500000  -0.2500000), wk =   0.0156250
        k(    4) = (  -0.3750000   0.3750000  -0.3750000), wk =   0.0156250
        k(    5) = (   0.5000000  -0.5000000   0.5000000), wk =   0.0078125
        k(    6) = (   0.0000000   0.2500000   0.0000000), wk =   0.0156250
        k(    7) = (  -0.1250000   0.3750000  -0.1250000), wk =   0.0312500
        k(    8) = (  -0.2500000   0.5000000  -0.2500000), wk =   0.0312500
        k(    9) = (   0.6250000  -0.3750000   0.6250000), wk =   0.0312500
        k(   10) = (   0.5000000  -0.2500000   0.5000000), wk =   0.0312500
        k(   11) = (   0.3750000  -0.1250000   0.3750000), wk =   0.0312500
        k(   12) = (   0.2500000   0.0000000   0.2500000), wk =   0.0312500
        k(   13) = (   0.0000000   0.5000000   0.0000000), wk =   0.0156250
        k(   14) = (  -0.1250000   0.6250000  -0.1250000), wk =   0.0312500
        k(   15) = (   0.7500000  -0.2500000   0.7500000), wk =   0.0312500
        k(   16) = (   0.6250000  -0.1250000   0.6250000), wk =   0.0312500
        k(   17) = (   0.5000000   0.0000000   0.5000000), wk =   0.0312500
        k(   18) = (   0.0000000   0.7500000   0.0000000), wk =   0.0156250
        k(   19) = (   0.8750000  -0.1250000   0.8750000), wk =   0.0312500
        k(   20) = (   0.7500000   0.0000000   0.7500000), wk =   0.0312500
        k(   21) = (   0.0000000  -1.0000000   0.0000000), wk =   0.0078125
        k(   22) = (  -0.2500000   0.5000000   0.0000000), wk =   0.0156250
        k(   23) = (   0.6250000  -0.3750000   0.8750000), wk =   0.0312500
        k(   24) = (   0.5000000  -0.2500000   0.7500000), wk =   0.0312500
        k(   25) = (   0.7500000  -0.2500000   1.0000000), wk =   0.0156250
        k(   26) = (   0.6250000  -0.1250000   0.8750000), wk =   0.0312500
        k(   27) = (   0.5000000   0.0000000   0.7500000), wk =   0.0312500
        k(   28) = (  -0.2500000  -1.0000000   0.0000000), wk =   0.0156250
        k(   29) = (  -0.5000000  -1.0000000   0.0000000), wk =   0.0156250
        k(   30) = (   0.1250000   0.1250000  -0.1250000), wk =   0.0156250
        k(   31) = (   0.2500000   0.2500000  -0.2500000), wk =   0.0156250
        k(   32) = (   0.3750000   0.3750000  -0.3750000), wk =   0.0156250
        k(   33) = (  -0.5000000  -0.5000000   0.5000000), wk =   0.0078125
        k(   34) = (   0.0000000   0.0000000   0.2500000), wk =   0.0078125
        k(   35) = (   0.3750000   0.1250000  -0.1250000), wk =   0.0312500
        k(   36) = (   0.1250000  -0.1250000   0.3750000), wk =   0.0156250
        k(   37) = (   0.1250000   0.1250000  -0.3750000), wk =   0.0156250
        k(   38) = (   0.5000000   0.2500000  -0.2500000), wk =   0.0312500
        k(   39) = (   0.2500000  -0.2500000   0.5000000), wk =   0.0156250
        k(   40) = (   0.2500000   0.2500000  -0.5000000), wk =   0.0156250
        k(   41) = (  -0.3750000  -0.6250000   0.6250000), wk =   0.0312500
        k(   42) = (  -0.6250000   0.6250000  -0.3750000), wk =   0.0156250
        k(   43) = (  -0.6250000  -0.6250000   0.3750000), wk =   0.0156250
        k(   44) = (  -0.2500000  -0.5000000   0.5000000), wk =   0.0312500
        k(   45) = (  -0.5000000   0.5000000  -0.2500000), wk =   0.0156250
        k(   46) = (  -0.5000000  -0.5000000   0.2500000), wk =   0.0156250
        k(   47) = (  -0.1250000  -0.3750000   0.3750000), wk =   0.0312500
        k(   48) = (  -0.3750000   0.3750000  -0.1250000), wk =   0.0156250
        k(   49) = (  -0.3750000  -0.3750000   0.1250000), wk =   0.0156250
        k(   50) = (  -0.2500000   0.2500000   0.0000000), wk =   0.0078125
        k(   51) = (  -0.2500000  -0.2500000   0.0000000), wk =   0.0078125
        k(   52) = (   0.0000000   0.0000000   0.5000000), wk =   0.0078125
        k(   53) = (   0.6250000   0.1250000  -0.1250000), wk =   0.0312500
        k(   54) = (   0.1250000  -0.1250000   0.6250000), wk =   0.0156250
        k(   55) = (   0.1250000   0.1250000  -0.6250000), wk =   0.0156250
        k(   56) = (  -0.2500000  -0.7500000   0.7500000), wk =   0.0312500
        k(   57) = (  -0.7500000   0.7500000  -0.2500000), wk =   0.0156250
        k(   58) = (  -0.7500000  -0.7500000   0.2500000), wk =   0.0156250
        k(   59) = (  -0.1250000  -0.6250000   0.6250000), wk =   0.0312500
        k(   60) = (  -0.6250000   0.6250000  -0.1250000), wk =   0.0156250
        k(   61) = (  -0.6250000  -0.6250000   0.1250000), wk =   0.0156250
        k(   62) = (  -0.5000000   0.5000000   0.0000000), wk =   0.0078125
        k(   63) = (  -0.5000000  -0.5000000   0.0000000), wk =   0.0078125
        k(   64) = (   0.0000000   0.0000000   0.7500000), wk =   0.0078125
        k(   65) = (  -0.1250000  -0.8750000   0.8750000), wk =   0.0312500
        k(   66) = (  -0.8750000   0.8750000  -0.1250000), wk =   0.0156250
        k(   67) = (  -0.8750000  -0.8750000   0.1250000), wk =   0.0156250
        k(   68) = (  -0.7500000   0.7500000   0.0000000), wk =   0.0078125
        k(   69) = (  -0.7500000  -0.7500000   0.0000000), wk =   0.0078125
        k(   70) = (   0.0000000   0.0000000  -1.0000000), wk =   0.0039063
        k(   71) = (   0.5000000   0.2500000   0.0000000), wk =   0.0156250
        k(   72) = (   0.0000000  -0.5000000  -0.2500000), wk =   0.0312500
        k(   73) = (   0.2500000   0.0000000   0.5000000), wk =   0.0312500
        k(   74) = (  -0.3750000  -0.6250000   0.8750000), wk =   0.0312500
        k(   75) = (   0.8750000   0.3750000   0.6250000), wk =   0.0312500
        k(   76) = (  -0.8750000   0.3750000  -0.6250000), wk =   0.0312500
        k(   77) = (  -0.6250000   0.8750000  -0.3750000), wk =   0.0312500
        k(   78) = (  -0.6250000  -0.8750000   0.3750000), wk =   0.0312500
        k(   79) = (  -0.2500000  -0.5000000   0.7500000), wk =   0.0312500
        k(   80) = (   0.7500000   0.2500000   0.5000000), wk =   0.0156250
        k(   81) = (  -0.7500000   0.2500000  -0.5000000), wk =   0.0156250
        k(   82) = (  -0.2500000  -0.7500000   1.0000000), wk =   0.0156250
        k(   83) = (   1.0000000   0.2500000   0.7500000), wk =   0.0312500
        k(   84) = (  -0.7500000   1.0000000  -0.2500000), wk =   0.0312500
        k(   85) = (  -0.1250000  -0.6250000   0.8750000), wk =   0.0312500
        k(   86) = (   0.8750000   0.1250000   0.6250000), wk =   0.0312500
        k(   87) = (  -0.8750000   0.1250000  -0.6250000), wk =   0.0312500
        k(   88) = (  -0.6250000   0.8750000  -0.1250000), wk =   0.0312500
        k(   89) = (  -0.6250000  -0.8750000   0.1250000), wk =   0.0312500
        k(   90) = (   0.7500000   0.0000000   0.5000000), wk =   0.0312500
        k(   91) = (  -0.5000000   0.7500000   0.0000000), wk =   0.0156250
        k(   92) = (  -0.5000000  -0.7500000   0.0000000), wk =   0.0156250
        k(   93) = (   0.0000000   1.0000000  -0.2500000), wk =   0.0156250
        k(   94) = (   0.2500000   0.0000000  -1.0000000), wk =   0.0156250
        k(   95) = (   0.0000000   1.0000000  -0.5000000), wk =   0.0078125

     Dense  grid:    16361 G-vectors     FFT dimensions: (  36,  36,  36)

     Largest allocated arrays     est. size (Mb)     dimensions
        Kohn-Sham Wavefunctions         0.13 Mb     (   2085,    4)
        NL pseudopotentials             0.51 Mb     (   2085,   16)
        Each V/rho on FFT grid          0.71 Mb     (  46656)
        Each G-vector array             0.12 Mb     (  16361)
        G-vector shells                 0.00 Mb     (    210)
     Largest temporary arrays     est. size (Mb)     dimensions
        Auxiliary wavefunctions         0.51 Mb     (   2085,   16)
        Each subspace H/S matrix        0.00 Mb     (  16,  16)
        Each <psi_i|beta_j> matrix      0.00 Mb     (     16,    4)
        Arrays for rho mixing           5.70 Mb     (  46656,   8)

     Initial potential from superposition of free atoms

     starting charge    7.99993, renormalised to    8.00000
     Starting wfc are    8 atomic wfcs

     total cpu time spent up to now is        3.4 secs

     per-process dynamical memory:    10.5 Mb

     Self-consistent Calculation

     iteration #  1     ecut=   140.00 Ry     beta=0.70
     Davidson diagonalization with overlap
     ethr =  1.00E-02,  avg # of iterations =  3.0

     total cpu time spent up to now is        8.2 secs

     total energy              =     -35.55363948 Ry
     Harris-Foulkes estimate   =     -35.61769815 Ry
     estimated scf accuracy    <       0.11479924 Ry

     iteration #  2     ecut=   140.00 Ry     beta=0.70
     Davidson diagonalization with overlap
     ethr =  1.43E-03,  avg # of iterations =  2.8

     total cpu time spent up to now is       14.2 secs

     total energy              =     -35.57874678 Ry
     Harris-Foulkes estimate   =     -35.58303836 Ry
     estimated scf accuracy    <       0.00826908 Ry

     iteration #  3     ecut=   140.00 Ry     beta=0.70
     Davidson diagonalization with overlap
     ethr =  1.03E-04,  avg # of iterations =  2.8

     total cpu time spent up to now is       19.3 secs

     total energy              =     -35.58342167 Ry
     Harris-Foulkes estimate   =     -35.58394507 Ry
     estimated scf accuracy    <       0.00081561 Ry

     iteration #  4     ecut=   140.00 Ry     beta=0.70
     Davidson diagonalization with overlap
     ethr =  1.02E-05,  avg # of iterations =  3.1

     total cpu time spent up to now is       25.1 secs

     total energy              =     -35.58368701 Ry
     Harris-Foulkes estimate   =     -35.58370255 Ry
     estimated scf accuracy    <       0.00004203 Ry

     iteration #  5     ecut=   140.00 Ry     beta=0.70
     Davidson diagonalization with overlap
     ethr =  5.25E-07,  avg # of iterations =  2.3

     total cpu time spent up to now is       29.6 secs

     total energy              =     -35.58369358 Ry
     Harris-Foulkes estimate   =     -35.58369689 Ry
     estimated scf accuracy    <       0.00000538 Ry

     iteration #  6     ecut=   140.00 Ry     beta=0.70
     Davidson diagonalization with overlap
     ethr =  6.73E-08,  avg # of iterations =  3.4

     total cpu time spent up to now is       35.8 secs

     End of self-consistent calculation

          k = 0.0000 0.0000 0.0000 (  2085 PWs)   bands (ev):

    -8.0191  11.2322  14.4614  16.7870

          k =-0.1250 0.1250-0.1250 (  2040 PWs)   bands (ev):

    -7.5729  10.8550  12.1134  14.8403

          k =-0.2500 0.2500-0.2500 (  2033 PWs)   bands (ev):

    -6.2495   7.6501  10.0932  13.6126

          k =-0.3750 0.3750-0.3750 (  2030 PWs)   bands (ev):

    -4.1313   3.3653   9.4710  12.8879

          k = 0.5000-0.5000 0.5000 (  2036 PWs)   bands (ev):

    -2.1798   0.6595   9.2422  12.6500

          k = 0.0000 0.2500 0.0000 (  2029 PWs)   bands (ev):

    -7.4297  10.1102  12.4524  14.5413

          k =-0.1250 0.3750-0.1250 (  2031 PWs)   bands (ev):

    -6.3989   9.3378   9.5635  12.4624

          k =-0.2500 0.5000-0.2500 (  2036 PWs)   bands (ev):

    -4.5381   5.0594   8.8038  11.6146

          k = 0.6250-0.3750 0.6250 (  2035 PWs)   bands (ev):

    -2.2134   1.5123   8.2190  11.4476

          k = 0.5000-0.2500 0.5000 (  2035 PWs)   bands (ev):

    -2.9515   2.4775   7.9917  11.9538

          k = 0.3750-0.1250 0.3750 (  2037 PWs)   bands (ev):

    -5.2425   6.3963   8.2509  12.9305

          k = 0.2500 0.0000 0.2500 (  2027 PWs)   bands (ev):

    -6.8397   8.9369  10.6912  13.9625

          k = 0.0000 0.5000 0.0000 (  2020 PWs)   bands (ev):

    -5.6820   7.8074   9.8850  11.2703

          k =-0.1250 0.6250-0.1250 (  2035 PWs)   bands (ev):

    -4.1125   6.8334   7.2894   9.6918

          k = 0.7500-0.2500 0.7500 (  2044 PWs)   bands (ev):

    -1.8967   3.5247   5.9375   9.4850

          k = 0.6250-0.1250 0.6250 (  2041 PWs)   bands (ev):

    -1.1985   2.6048   5.1538  10.0813

          k = 0.5000 0.0000 0.5000 (  2029 PWs)   bands (ev):

    -3.4241   4.8151   6.0235  11.2241

          k = 0.0000 0.7500 0.0000 (  2048 PWs)   bands (ev):

    -2.8573   4.7411   8.1854   8.5870

          k = 0.8750-0.1250 0.8750 (  2047 PWs)   bands (ev):

    -0.8958   3.1141   6.2455   8.1269

          k = 0.7500 0.0000 0.7500 (  2045 PWs)   bands (ev):

     0.6738   1.8765   4.3373   8.6620

          k = 0.0000-1.0000 0.0000 (  2044 PWs)   bands (ev):

     0.8216   0.8216   7.6615   7.6615

          k =-0.2500 0.5000 0.0000 (  2036 PWs)   bands (ev):

    -5.0982   8.2493   8.7131   9.1053

          k = 0.6250-0.3750 0.8750 (  2041 PWs)   bands (ev):

    -3.0397   4.4321   7.9609   8.3594

          k = 0.5000-0.2500 0.7500 (  2036 PWs)   bands (ev):

    -1.1875   1.8107   7.1082   8.8651

          k = 0.7500-0.2500 1.0000 (  2051 PWs)   bands (ev):

    -2.3450   5.4550   6.7708   7.0199

          k = 0.6250-0.1250 0.8750 (  2041 PWs)   bands (ev):

    -0.2407   3.3900   4.6303   7.3140

          k = 0.5000 0.0000 0.7500 (  2040 PWs)   bands (ev):

    -0.8483   3.3134   4.5669   8.5078

          k =-0.2500-1.0000 0.0000 (  2044 PWs)   bands (ev):

     1.0093   1.3696   6.3562   6.6992

          k =-0.5000-1.0000 0.0000 (  2048 PWs)   bands (ev):

     1.2331   2.4768   4.4813   5.9442

          k = 0.1250 0.1250-0.1250 (  2040 PWs)   bands (ev):

    -7.5785   9.8106  13.2074  15.1651

          k = 0.2500 0.2500-0.2500 (  2033 PWs)   bands (ev):

    -6.2671   6.3862  11.5390  13.7279

          k = 0.3750 0.3750-0.3750 (  2030 PWs)   bands (ev):

    -4.1249   2.4883  10.5223  12.8652

          k =-0.5000-0.5000 0.5000 (  2036 PWs)   bands (ev):

    -1.6666  -0.6143  10.1843  12.5820

          k = 0.0000 0.0000 0.2500 (  2029 PWs)   bands (ev):

    -7.4254  10.1689  13.0148  13.3775

          k = 0.3750 0.1250-0.1250 (  2031 PWs)   bands (ev):

    -6.4127   7.5598  10.8623  13.5947

          k = 0.1250-0.1250 0.3750 (  2031 PWs)   bands (ev):

    -6.3945   9.1662   9.2862  12.9663

          k = 0.1250 0.1250-0.3750 (  2031 PWs)   bands (ev):

    -6.3991   7.8197  11.4825  12.0079

          k = 0.5000 0.2500-0.2500 (  2036 PWs)   bands (ev):

    -4.5507   3.9768   9.7871  12.1442

          k = 0.2500-0.2500 0.5000 (  2036 PWs)   bands (ev):

    -4.5291   4.9382   8.7274  11.8531

          k = 0.2500 0.2500-0.5000 (  2036 PWs)   bands (ev):

    -4.5310   4.0698  10.0400  11.3670

          k =-0.3750-0.6250 0.6250 (  2035 PWs)   bands (ev):

    -1.9652   0.4395   9.3697  11.2773

          k =-0.6250 0.6250-0.3750 (  2035 PWs)   bands (ev):

    -2.1960   1.4647   8.6933  10.8012

          k =-0.6250-0.6250 0.3750 (  2035 PWs)   bands (ev):

    -1.9507   0.4548   9.0264  11.5070

          k =-0.2500-0.5000 0.5000 (  2035 PWs)   bands (ev):

    -2.8744   1.5808   9.3389  11.3929

          k =-0.5000 0.5000-0.2500 (  2035 PWs)   bands (ev):

    -2.9580   2.5252   9.1750  10.2269

          k =-0.5000-0.5000 0.2500 (  2035 PWs)   bands (ev):

    -2.8897   1.5651   8.6601  12.3797

          k =-0.1250-0.3750 0.3750 (  2037 PWs)   bands (ev):

    -5.2505   5.3412   9.7247  12.4323

          k =-0.3750 0.3750-0.1250 (  2037 PWs)   bands (ev):

    -5.2405   6.5292   9.9960  10.3152

          k =-0.3750-0.3750 0.1250 (  2037 PWs)   bands (ev):

    -5.2700   5.1661   9.1538  13.8493

          k =-0.2500 0.2500 0.0000 (  2027 PWs)   bands (ev):

    -6.8339  10.5821  10.7535  11.5156

          k =-0.2500-0.2500 0.0000 (  2027 PWs)   bands (ev):

    -6.8541   8.1140  10.9869  15.5088

          k = 0.0000 0.0000 0.5000 (  2020 PWs)   bands (ev):

    -5.6632   8.2704   9.6638  10.4914

          k = 0.6250 0.1250-0.1250 (  2035 PWs)   bands (ev):

    -4.1200   5.2970   8.7055  10.1269

          k = 0.1250-0.1250 0.6250 (  2035 PWs)   bands (ev):

    -4.0861   6.5249   7.6254   9.3784

          k = 0.1250 0.1250-0.6250 (  2035 PWs)   bands (ev):

    -4.0856   5.8778   7.9899   9.6997

          k =-0.2500-0.7500 0.7500 (  2044 PWs)   bands (ev):

    -1.7874   2.2586   7.4402   9.2938

          k =-0.7500 0.7500-0.2500 (  2044 PWs)   bands (ev):

    -1.8500   3.2392   7.5815   7.7337

          k =-0.7500-0.7500 0.2500 (  2044 PWs)   bands (ev):

    -1.7548   2.4843   6.5102   9.7517

          k =-0.1250-0.6250 0.6250 (  2041 PWs)   bands (ev):

    -0.9554   1.4410   6.3335   9.8429

          k =-0.6250 0.6250-0.1250 (  2041 PWs)   bands (ev):

    -1.2307   2.6462   6.5462   8.1422

          k =-0.6250-0.6250 0.1250 (  2041 PWs)   bands (ev):

    -0.9203   1.4064   5.6404  10.6337

          k =-0.5000 0.5000 0.0000 (  2029 PWs)   bands (ev):

    -3.4373   6.0937   6.1797   9.1095

          k =-0.5000-0.5000 0.0000 (  2029 PWs)   bands (ev):

    -3.4420   4.0378   6.2292  12.1962

          k = 0.0000 0.0000 0.7500 (  2048 PWs)   bands (ev):

    -2.8090   5.4334   6.8401   8.6774

          k =-0.1250-0.8750 0.8750 (  2047 PWs)   bands (ev):

    -0.8311   2.6401   6.7857   8.0753

          k =-0.8750 0.8750-0.1250 (  2047 PWs)   bands (ev):

    -0.8272   3.3151   6.6670   7.0021

          k =-0.8750-0.8750 0.1250 (  2047 PWs)   bands (ev):

    -0.7909   3.3401   5.2420   8.4994

          k =-0.7500 0.7500 0.0000 (  2045 PWs)   bands (ev):

     0.3455   2.7557   4.7978   7.1534

          k =-0.7500-0.7500 0.0000 (  2045 PWs)   bands (ev):

     1.3847   1.4077   3.4735   9.1881

          k = 0.0000 0.0000-1.0000 (  2044 PWs)   bands (ev):

     0.4820   1.5864   6.3285   8.0607

          k = 0.5000 0.2500 0.0000 (  2036 PWs)   bands (ev):

    -5.1242   5.9364   8.5406  12.6779

          k = 0.0000-0.5000-0.2500 (  2036 PWs)   bands (ev):

    -5.1072   6.7149   8.3037  11.6751

          k = 0.2500 0.0000 0.5000 (  2036 PWs)   bands (ev):

    -5.0926   6.9259   8.1011  11.3647

          k =-0.3750-0.6250 0.8750 (  2041 PWs)   bands (ev):

    -3.0198   3.1855   7.2275  11.0309

          k = 0.8750 0.3750 0.6250 (  2041 PWs)   bands (ev):

    -3.0116   3.2706   8.0257   9.9054

          k =-0.8750 0.3750-0.6250 (  2041 PWs)   bands (ev):

    -3.0369   4.3559   6.2985  10.5942

          k =-0.6250 0.8750-0.3750 (  2041 PWs)   bands (ev):

    -3.0151   4.1990   6.7535  10.0281

          k =-0.6250-0.8750 0.3750 (  2041 PWs)   bands (ev):

    -2.9903   3.3933   7.4806  10.1561

          k =-0.2500-0.5000 0.7500 (  2036 PWs)   bands (ev):

    -0.6337   0.4181   7.1520   9.9998

          k = 0.7500 0.2500 0.5000 (  2036 PWs)   bands (ev):

    -0.6443   0.3828   8.4619   8.7007

          k =-0.7500 0.2500-0.5000 (  2036 PWs)   bands (ev):

    -1.2034   1.8592   6.1436  10.1488

          k =-0.2500-0.7500 1.0000 (  2051 PWs)   bands (ev):

    -2.3166   3.8426   6.8885   8.8744

          k = 1.0000 0.2500 0.7500 (  2051 PWs)   bands (ev):

    -2.3298   4.3804   6.7911   8.3106

          k =-0.7500 1.0000-0.2500 (  2051 PWs)   bands (ev):

    -2.2857   4.9574   5.9868   8.1707

          k =-0.1250-0.6250 0.8750 (  2041 PWs)   bands (ev):

     0.1521   1.8055   5.4194   7.9000

          k = 0.8750 0.1250 0.6250 (  2041 PWs)   bands (ev):

     0.0813   1.8470   6.0814   7.2539

          k =-0.8750 0.1250-0.6250 (  2041 PWs)   bands (ev):

    -0.2080   3.2107   4.3050   7.9619

          k =-0.6250 0.8750-0.1250 (  2041 PWs)   bands (ev):

    -0.1787   3.0608   5.6847   6.3631

          k =-0.6250-0.8750 0.1250 (  2041 PWs)   bands (ev):

     0.1100   2.2410   4.6595   8.1414

          k = 0.7500 0.0000 0.5000 (  2040 PWs)   bands (ev):

    -0.8756   3.1276   4.7988   8.6096

          k =-0.5000 0.7500 0.0000 (  2040 PWs)   bands (ev):

    -0.9812   4.3432   4.9454   6.9289

          k =-0.5000-0.7500 0.0000 (  2040 PWs)   bands (ev):

    -0.7488   2.5435   4.6764   9.2585

          k = 0.0000 1.0000-0.2500 (  2044 PWs)   bands (ev):

     1.1668   1.1668   6.5690   6.5690

          k = 0.2500 0.0000-1.0000 (  2044 PWs)   bands (ev):

     0.7808   2.0606   5.2715   7.0366

          k = 0.0000 1.0000-0.5000 (  2048 PWs)   bands (ev):

     1.6276   1.6276   5.5070   5.5070

!    total energy              =     -35.58369651 Ry
     Harris-Foulkes estimate   =     -35.58369663 Ry
     estimated scf accuracy    <       0.00000061 Ry

     total all-electron energy =      -151.142693 Ry

     The total energy is the sum of the following terms:

     one-electron contribution =       8.97138252 Ry
     hartree contribution      =       1.89631372 Ry
     xc contribution           =      -8.47280157 Ry
     ewald contribution        =     -25.90151745 Ry
     one-center paw contrib.   =     -12.07707372 Ry

     convergence has been achieved in   6 iterations

     Forces acting on atoms (Ry/au):

     atom    1 type  1   force =     0.00000000    0.00000000   -0.25643976
     atom    2 type  1   force =     0.00000000    0.00000000    0.25643976

     Total force =     0.362661     Total SCF correction =     0.000195

     Writing output data file diamond.save

     init_run     :      3.29s CPU      3.23s WALL (       1 calls)
     electrons    :     33.12s CPU     32.39s WALL (       1 calls)
     forces       :      0.61s CPU      0.51s WALL (       1 calls)

     Called by init_run:
     wfcinit      :      2.50s CPU      2.41s WALL (       1 calls)
     potinit      :      0.05s CPU      0.05s WALL (       1 calls)

     Called by electrons:
     c_bands      :     28.31s CPU     27.59s WALL (       6 calls)
     sum_band     :      4.29s CPU      4.17s WALL (       6 calls)
     v_of_rho     :      0.07s CPU      0.08s WALL (       7 calls)
     newd         :      0.21s CPU      0.22s WALL (       7 calls)
     mix_rho      :      0.09s CPU      0.10s WALL (       6 calls)

     Called by c_bands:
     init_us_2    :      1.46s CPU      1.61s WALL (    1330 calls)
     cegterg      :     26.59s CPU     24.31s WALL (     570 calls)

     Called by *egterg:
     h_psi        :     22.44s CPU     21.63s WALL (    2320 calls)
     s_psi        :      1.83s CPU      1.13s WALL (    2320 calls)
     g_psi        :      0.20s CPU      0.16s WALL (    1655 calls)
     cdiaghg      :      0.40s CPU      0.47s WALL (    2225 calls)

     Called by h_psi:
     add_vuspsi   :      1.94s CPU      1.17s WALL (    2320 calls)

     General routines
     calbec       :      2.94s CPU      1.71s WALL (    2985 calls)
     fft          :      0.08s CPU      0.07s WALL (      45 calls)
     fftw         :     18.04s CPU     18.73s WALL (   18016 calls)
     davcio       :      0.18s CPU      1.70s WALL (    1900 calls)


     PAW routines
     PAW_pot      :      0.20s CPU      0.20s WALL (       7 calls)
     PAW_ddot     :      0.08s CPU      0.07s WALL (      36 calls)
     PAW_symme    :      0.00s CPU      0.00s WALL (      13 calls)

     PWSCF        :    37.47s CPU        36.72s WALL


   This run was terminated on:  21:37:15  26Mar2012            

=------------------------------------------------------------------------------=
   JOB DONE.
=------------------------------------------------------------------------------=
