
     Program PWSCF v.4.3.2      starts on 26Mar2012 at 21:36: 2 

     This program is part of the open-source Quantum ESPRESSO suite
     for quantum simulation of materials; please cite
         "P. Giannozzi et al., J. Phys.:Condens. Matter 21 395502 (2009);
          URL http://www.quantum-espresso.org", 
     in publications or presentations arising from this work. More details at
     http://www.quantum-espresso.org/wiki/index.php/Citing_Quantum-ESPRESSO

     Current dimensions of program PWSCF are:
     Max number of different atomic species (ntypx) = 10
     Max number of k-points (npk) =  40000
     Max angular momentum in pseudopotentials (lmaxx) =  3
     Waiting for input...
     Reading input from stdin
     warning: symmetry operation #  5 not allowed.   fractional translation:
       0.2000000  0.2000000  0.3000000  in crystal coordinates
     warning: symmetry operation #  6 not allowed.   fractional translation:
       0.2000000  0.2000000  0.3000000  in crystal coordinates
     warning: symmetry operation # 25 not allowed.   fractional translation:
       0.2000000  0.2000000  0.3000000  in crystal coordinates
     warning: symmetry operation # 26 not allowed.   fractional translation:
       0.2000000  0.2000000  0.3000000  in crystal coordinates

     G-vector sticks info
     --------------------
     sticks:   dense  smooth     PW     G-vecs:    dense   smooth      PW
     Sum         847     847    253                16361    16361    2733



     bravais-lattice index     =            2
     lattice parameter (alat)  =       6.6200  a.u.
     unit-cell volume          =      72.5294 (a.u.)^3
     number of atoms/cell      =            2
     number of atomic types    =            1
     number of electrons       =         8.00
     number of Kohn-Sham states=            4
     kinetic-energy cutoff     =     140.0000  Ry
     charge density cutoff     =     560.0000  Ry
     convergence threshold     =      1.0E-06
     mixing beta               =       0.7000
     number of iterations used =            8  plain     mixing
     Exchange-correlation      =  SLA  PZ   NOGX NOGC ( 1 1 0 0 0)
     EXX-fraction              =        0.00

     celldm(1)=   6.620000  celldm(2)=   0.000000  celldm(3)=   0.000000
     celldm(4)=   0.000000  celldm(5)=   0.000000  celldm(6)=   0.000000

     crystal axes: (cart. coord. in units of alat)
               a(1) = (  -0.500000   0.000000   0.500000 )  
               a(2) = (   0.000000   0.500000   0.500000 )  
               a(3) = (  -0.500000   0.500000   0.000000 )  

     reciprocal axes: (cart. coord. in units 2 pi/alat)
               b(1) = ( -1.000000 -1.000000  1.000000 )  
               b(2) = (  1.000000  1.000000  1.000000 )  
               b(3) = ( -1.000000  1.000000 -1.000000 )  


     PseudoPot. # 1 for  C read from file:
     /home/mullspace/Documents/espresso-4.3.2/pseudo/C.pz-kjpaw.UPF
     MD5 check sum: 414e6e825ae75add557e798061b49a04
     Pseudo is Projector augmented-wave + core cor, Zval =  4.0
     Generated using "atomic" code by A. Dal Corso (espresso distribution)
     Shape of augmentation charge: BESSEL
     Using radial grid of 1073 points,  4 beta functions with: 
                l(1) =   0
                l(2) =   0
                l(3) =   1
                l(4) =   1
     Q(r) pseudized with 0 coefficients 


     atomic species   valence    mass     pseudopotential
        C              4.00    12.01070      C( 1.00)

      4 Sym.Ops. (no inversion)


   Cartesian axes

     site n.     atom                  positions (alat units)
         1           C   tau(   1) = (   0.0000000   0.0000000   0.0500000  )
         2           C   tau(   2) = (   0.2500000   0.2500000   0.2500000  )

     number of k points=    95
                       cart. coord. in units 2pi/alat
        k(    1) = (   0.0000000   0.0000000   0.0000000), wk =   0.0039063
        k(    2) = (  -0.1250000   0.1250000  -0.1250000), wk =   0.0156250
        k(    3) = (  -0.2500000   0.2500000  -0.2500000), wk =   0.0156250
        k(    4) = (  -0.3750000   0.3750000  -0.3750000), wk =   0.0156250
        k(    5) = (   0.5000000  -0.5000000   0.5000000), wk =   0.0078125
        k(    6) = (   0.0000000   0.2500000   0.0000000), wk =   0.0156250
        k(    7) = (  -0.1250000   0.3750000  -0.1250000), wk =   0.0312500
        k(    8) = (  -0.2500000   0.5000000  -0.2500000), wk =   0.0312500
        k(    9) = (   0.6250000  -0.3750000   0.6250000), wk =   0.0312500
        k(   10) = (   0.5000000  -0.2500000   0.5000000), wk =   0.0312500
        k(   11) = (   0.3750000  -0.1250000   0.3750000), wk =   0.0312500
        k(   12) = (   0.2500000   0.0000000   0.2500000), wk =   0.0312500
        k(   13) = (   0.0000000   0.5000000   0.0000000), wk =   0.0156250
        k(   14) = (  -0.1250000   0.6250000  -0.1250000), wk =   0.0312500
        k(   15) = (   0.7500000  -0.2500000   0.7500000), wk =   0.0312500
        k(   16) = (   0.6250000  -0.1250000   0.6250000), wk =   0.0312500
        k(   17) = (   0.5000000   0.0000000   0.5000000), wk =   0.0312500
        k(   18) = (   0.0000000   0.7500000   0.0000000), wk =   0.0156250
        k(   19) = (   0.8750000  -0.1250000   0.8750000), wk =   0.0312500
        k(   20) = (   0.7500000   0.0000000   0.7500000), wk =   0.0312500
        k(   21) = (   0.0000000  -1.0000000   0.0000000), wk =   0.0078125
        k(   22) = (  -0.2500000   0.5000000   0.0000000), wk =   0.0156250
        k(   23) = (   0.6250000  -0.3750000   0.8750000), wk =   0.0312500
        k(   24) = (   0.5000000  -0.2500000   0.7500000), wk =   0.0312500
        k(   25) = (   0.7500000  -0.2500000   1.0000000), wk =   0.0156250
        k(   26) = (   0.6250000  -0.1250000   0.8750000), wk =   0.0312500
        k(   27) = (   0.5000000   0.0000000   0.7500000), wk =   0.0312500
        k(   28) = (  -0.2500000  -1.0000000   0.0000000), wk =   0.0156250
        k(   29) = (  -0.5000000  -1.0000000   0.0000000), wk =   0.0156250
        k(   30) = (   0.1250000   0.1250000  -0.1250000), wk =   0.0156250
        k(   31) = (   0.2500000   0.2500000  -0.2500000), wk =   0.0156250
        k(   32) = (   0.3750000   0.3750000  -0.3750000), wk =   0.0156250
        k(   33) = (  -0.5000000  -0.5000000   0.5000000), wk =   0.0078125
        k(   34) = (   0.0000000   0.0000000   0.2500000), wk =   0.0078125
        k(   35) = (   0.3750000   0.1250000  -0.1250000), wk =   0.0312500
        k(   36) = (   0.1250000  -0.1250000   0.3750000), wk =   0.0156250
        k(   37) = (   0.1250000   0.1250000  -0.3750000), wk =   0.0156250
        k(   38) = (   0.5000000   0.2500000  -0.2500000), wk =   0.0312500
        k(   39) = (   0.2500000  -0.2500000   0.5000000), wk =   0.0156250
        k(   40) = (   0.2500000   0.2500000  -0.5000000), wk =   0.0156250
        k(   41) = (  -0.3750000  -0.6250000   0.6250000), wk =   0.0312500
        k(   42) = (  -0.6250000   0.6250000  -0.3750000), wk =   0.0156250
        k(   43) = (  -0.6250000  -0.6250000   0.3750000), wk =   0.0156250
        k(   44) = (  -0.2500000  -0.5000000   0.5000000), wk =   0.0312500
        k(   45) = (  -0.5000000   0.5000000  -0.2500000), wk =   0.0156250
        k(   46) = (  -0.5000000  -0.5000000   0.2500000), wk =   0.0156250
        k(   47) = (  -0.1250000  -0.3750000   0.3750000), wk =   0.0312500
        k(   48) = (  -0.3750000   0.3750000  -0.1250000), wk =   0.0156250
        k(   49) = (  -0.3750000  -0.3750000   0.1250000), wk =   0.0156250
        k(   50) = (  -0.2500000   0.2500000   0.0000000), wk =   0.0078125
        k(   51) = (  -0.2500000  -0.2500000   0.0000000), wk =   0.0078125
        k(   52) = (   0.0000000   0.0000000   0.5000000), wk =   0.0078125
        k(   53) = (   0.6250000   0.1250000  -0.1250000), wk =   0.0312500
        k(   54) = (   0.1250000  -0.1250000   0.6250000), wk =   0.0156250
        k(   55) = (   0.1250000   0.1250000  -0.6250000), wk =   0.0156250
        k(   56) = (  -0.2500000  -0.7500000   0.7500000), wk =   0.0312500
        k(   57) = (  -0.7500000   0.7500000  -0.2500000), wk =   0.0156250
        k(   58) = (  -0.7500000  -0.7500000   0.2500000), wk =   0.0156250
        k(   59) = (  -0.1250000  -0.6250000   0.6250000), wk =   0.0312500
        k(   60) = (  -0.6250000   0.6250000  -0.1250000), wk =   0.0156250
        k(   61) = (  -0.6250000  -0.6250000   0.1250000), wk =   0.0156250
        k(   62) = (  -0.5000000   0.5000000   0.0000000), wk =   0.0078125
        k(   63) = (  -0.5000000  -0.5000000   0.0000000), wk =   0.0078125
        k(   64) = (   0.0000000   0.0000000   0.7500000), wk =   0.0078125
        k(   65) = (  -0.1250000  -0.8750000   0.8750000), wk =   0.0312500
        k(   66) = (  -0.8750000   0.8750000  -0.1250000), wk =   0.0156250
        k(   67) = (  -0.8750000  -0.8750000   0.1250000), wk =   0.0156250
        k(   68) = (  -0.7500000   0.7500000   0.0000000), wk =   0.0078125
        k(   69) = (  -0.7500000  -0.7500000   0.0000000), wk =   0.0078125
        k(   70) = (   0.0000000   0.0000000  -1.0000000), wk =   0.0039063
        k(   71) = (   0.5000000   0.2500000   0.0000000), wk =   0.0156250
        k(   72) = (   0.0000000  -0.5000000  -0.2500000), wk =   0.0312500
        k(   73) = (   0.2500000   0.0000000   0.5000000), wk =   0.0312500
        k(   74) = (  -0.3750000  -0.6250000   0.8750000), wk =   0.0312500
        k(   75) = (   0.8750000   0.3750000   0.6250000), wk =   0.0312500
        k(   76) = (  -0.8750000   0.3750000  -0.6250000), wk =   0.0312500
        k(   77) = (  -0.6250000   0.8750000  -0.3750000), wk =   0.0312500
        k(   78) = (  -0.6250000  -0.8750000   0.3750000), wk =   0.0312500
        k(   79) = (  -0.2500000  -0.5000000   0.7500000), wk =   0.0312500
        k(   80) = (   0.7500000   0.2500000   0.5000000), wk =   0.0156250
        k(   81) = (  -0.7500000   0.2500000  -0.5000000), wk =   0.0156250
        k(   82) = (  -0.2500000  -0.7500000   1.0000000), wk =   0.0156250
        k(   83) = (   1.0000000   0.2500000   0.7500000), wk =   0.0312500
        k(   84) = (  -0.7500000   1.0000000  -0.2500000), wk =   0.0312500
        k(   85) = (  -0.1250000  -0.6250000   0.8750000), wk =   0.0312500
        k(   86) = (   0.8750000   0.1250000   0.6250000), wk =   0.0312500
        k(   87) = (  -0.8750000   0.1250000  -0.6250000), wk =   0.0312500
        k(   88) = (  -0.6250000   0.8750000  -0.1250000), wk =   0.0312500
        k(   89) = (  -0.6250000  -0.8750000   0.1250000), wk =   0.0312500
        k(   90) = (   0.7500000   0.0000000   0.5000000), wk =   0.0312500
        k(   91) = (  -0.5000000   0.7500000   0.0000000), wk =   0.0156250
        k(   92) = (  -0.5000000  -0.7500000   0.0000000), wk =   0.0156250
        k(   93) = (   0.0000000   1.0000000  -0.2500000), wk =   0.0156250
        k(   94) = (   0.2500000   0.0000000  -1.0000000), wk =   0.0156250
        k(   95) = (   0.0000000   1.0000000  -0.5000000), wk =   0.0078125

     Dense  grid:    16361 G-vectors     FFT dimensions: (  36,  36,  36)

     Largest allocated arrays     est. size (Mb)     dimensions
        Kohn-Sham Wavefunctions         0.13 Mb     (   2085,    4)
        NL pseudopotentials             0.51 Mb     (   2085,   16)
        Each V/rho on FFT grid          0.71 Mb     (  46656)
        Each G-vector array             0.12 Mb     (  16361)
        G-vector shells                 0.00 Mb     (    210)
     Largest temporary arrays     est. size (Mb)     dimensions
        Auxiliary wavefunctions         0.51 Mb     (   2085,   16)
        Each subspace H/S matrix        0.00 Mb     (  16,  16)
        Each <psi_i|beta_j> matrix      0.00 Mb     (     16,    4)
        Arrays for rho mixing           5.70 Mb     (  46656,   8)

     Initial potential from superposition of free atoms

     starting charge    7.99993, renormalised to    8.00000
     Starting wfc are    8 atomic wfcs

     total cpu time spent up to now is        3.6 secs

     per-process dynamical memory:    10.5 Mb

     Self-consistent Calculation

     iteration #  1     ecut=   140.00 Ry     beta=0.70
     Davidson diagonalization with overlap
     ethr =  1.00E-02,  avg # of iterations =  3.0

     total cpu time spent up to now is        8.4 secs

     total energy              =     -35.55310794 Ry
     Harris-Foulkes estimate   =     -35.61826840 Ry
     estimated scf accuracy    <       0.11654594 Ry

     iteration #  2     ecut=   140.00 Ry     beta=0.70
     Davidson diagonalization with overlap
     ethr =  1.46E-03,  avg # of iterations =  2.8

     total cpu time spent up to now is       13.5 secs

     total energy              =     -35.57800174 Ry
     Harris-Foulkes estimate   =     -35.58230647 Ry
     estimated scf accuracy    <       0.00829053 Ry

     iteration #  3     ecut=   140.00 Ry     beta=0.70
     Davidson diagonalization with overlap
     ethr =  1.04E-04,  avg # of iterations =  2.8

     total cpu time spent up to now is       19.2 secs

     total energy              =     -35.58287303 Ry
     Harris-Foulkes estimate   =     -35.58341429 Ry
     estimated scf accuracy    <       0.00084439 Ry

     iteration #  4     ecut=   140.00 Ry     beta=0.70
     Davidson diagonalization with overlap
     ethr =  1.06E-05,  avg # of iterations =  3.1

     total cpu time spent up to now is       25.0 secs

     total energy              =     -35.58314258 Ry
     Harris-Foulkes estimate   =     -35.58316006 Ry
     estimated scf accuracy    <       0.00004584 Ry

     iteration #  5     ecut=   140.00 Ry     beta=0.70
     Davidson diagonalization with overlap
     ethr =  5.73E-07,  avg # of iterations =  2.3

     total cpu time spent up to now is       29.4 secs

     total energy              =     -35.58315054 Ry
     Harris-Foulkes estimate   =     -35.58315308 Ry
     estimated scf accuracy    <       0.00000532 Ry

     iteration #  6     ecut=   140.00 Ry     beta=0.70
     Davidson diagonalization with overlap
     ethr =  6.64E-08,  avg # of iterations =  3.4

     total cpu time spent up to now is       35.7 secs

     End of self-consistent calculation

          k = 0.0000 0.0000 0.0000 (  2085 PWs)   bands (ev):

    -7.9962  11.3102  14.5478  16.8797

          k =-0.1250 0.1250-0.1250 (  2028 PWs)   bands (ev):

    -7.5486  10.9312  12.1906  14.9252

          k =-0.2500 0.2500-0.2500 (  2027 PWs)   bands (ev):

    -6.2207   7.7126  10.1659  13.6928

          k =-0.3750 0.3750-0.3750 (  2024 PWs)   bands (ev):

    -4.0941   3.4126   9.5411  12.9655

          k = 0.5000-0.5000 0.5000 (  2036 PWs)   bands (ev):

    -2.1280   0.6899   9.3113  12.7269

          k = 0.0000 0.2500 0.0000 (  2029 PWs)   bands (ev):

    -7.4050  10.1852  12.5292  14.6265

          k =-0.1250 0.3750-0.1250 (  2022 PWs)   bands (ev):

    -6.3707   9.4049   9.6360  12.5399

          k =-0.2500 0.5000-0.2500 (  2036 PWs)   bands (ev):

    -4.5031   5.1126   8.8735  11.6881

          k = 0.6250-0.3750 0.6250 (  2021 PWs)   bands (ev):

    -2.1650   1.5486   8.2865  11.5199

          k = 0.5000-0.2500 0.5000 (  2024 PWs)   bands (ev):

    -2.9090   2.5205   8.0580  12.0281

          k = 0.3750-0.1250 0.3750 (  2027 PWs)   bands (ev):

    -5.2105   6.4553   8.3173  13.0090

          k = 0.2500 0.0000 0.2500 (  2027 PWs)   bands (ev):

    -6.8131   9.0068  10.7636  14.0450

          k = 0.0000 0.5000 0.0000 (  2020 PWs)   bands (ev):

    -5.6519   7.8778   9.9511  11.3447

          k =-0.1250 0.6250-0.1250 (  2026 PWs)   bands (ev):

    -4.0766   6.9026   7.3470   9.7578

          k = 0.7500-0.2500 0.7500 (  2034 PWs)   bands (ev):

    -1.8505   3.5719   5.9989   9.5492

          k = 0.6250-0.1250 0.6250 (  2025 PWs)   bands (ev):

    -1.1476   2.6468   5.2114  10.1479

          k = 0.5000 0.0000 0.5000 (  2017 PWs)   bands (ev):

    -3.3860   4.8748   6.0783  11.2957

          k = 0.0000 0.7500 0.0000 (  2028 PWs)   bands (ev):

    -2.8180   4.8062   8.2447   8.6476

          k = 0.8750-0.1250 0.8750 (  2038 PWs)   bands (ev):

    -0.8482   3.1731   6.2973   8.1855

          k = 0.7500 0.0000 0.7500 (  2045 PWs)   bands (ev):

     0.7323   1.9299   4.3781   8.7229

          k = 0.0000-1.0000 0.0000 (  2044 PWs)   bands (ev):

     0.8737   0.8737   7.7183   7.7183

          k =-0.2500 0.5000 0.0000 (  2028 PWs)   bands (ev):

    -5.0654   8.3115   8.7783   9.1774

          k = 0.6250-0.3750 0.8750 (  2030 PWs)   bands (ev):

    -2.9984   4.4825   8.0287   8.4207

          k = 0.5000-0.2500 0.7500 (  2026 PWs)   bands (ev):

    -1.1330   1.8464   7.1712   8.9288

          k = 0.7500-0.2500 1.0000 (  2035 PWs)   bands (ev):

    -2.3020   5.5207   6.8260   7.0749

          k = 0.6250-0.1250 0.8750 (  2029 PWs)   bands (ev):

    -0.1856   3.4427   4.6785   7.3703

          k = 0.5000 0.0000 0.7500 (  2033 PWs)   bands (ev):

    -0.7988   3.3701   4.6144   8.5680

          k =-0.2500-1.0000 0.0000 (  2032 PWs)   bands (ev):

     1.0665   1.4216   6.4088   6.7503

          k =-0.5000-1.0000 0.0000 (  2048 PWs)   bands (ev):

     1.2961   2.5337   4.5247   5.9896

          k = 0.1250 0.1250-0.1250 (  2028 PWs)   bands (ev):

    -7.5544   9.8841  13.2884  15.2505

          k = 0.2500 0.2500-0.2500 (  2027 PWs)   bands (ev):

    -6.2390   6.4493  11.6139  13.8081

          k = 0.3750 0.3750-0.3750 (  2024 PWs)   bands (ev):

    -4.0902   2.5394  10.5939  12.9424

          k =-0.5000-0.5000 0.5000 (  2036 PWs)   bands (ev):

    -1.6181  -0.5790  10.2549  12.6583

          k = 0.0000 0.0000 0.2500 (  2029 PWs)   bands (ev):

    -7.4006  10.2412  13.1005  13.4554

          k = 0.3750 0.1250-0.1250 (  2022 PWs)   bands (ev):

    -6.3851   7.6281  10.9326  13.6765

          k = 0.1250-0.1250 0.3750 (  2022 PWs)   bands (ev):

    -6.3664   9.2351   9.3544  13.0476

          k = 0.1250 0.1250-0.3750 (  2022 PWs)   bands (ev):

    -6.3713   7.8849  11.5630  12.0807

          k = 0.5000 0.2500-0.2500 (  2036 PWs)   bands (ev):

    -4.5175   4.0339   9.8547  12.2203

          k = 0.2500-0.2500 0.5000 (  2036 PWs)   bands (ev):

    -4.4942   4.9925   8.7934  11.9299

          k = 0.2500 0.2500-0.5000 (  2036 PWs)   bands (ev):

    -4.4974   4.1246  10.1140  11.4375

          k =-0.3750-0.6250 0.6250 (  2021 PWs)   bands (ev):

    -1.9222   0.4834   9.4372  11.3495

          k =-0.6250 0.6250-0.3750 (  2021 PWs)   bands (ev):

    -2.1476   1.5014   8.7595  10.8736

          k =-0.6250-0.6250 0.3750 (  2021 PWs)   bands (ev):

    -1.9070   0.4974   9.0954  11.5784

          k =-0.2500-0.5000 0.5000 (  2024 PWs)   bands (ev):

    -2.8350   1.6286   9.4069  11.4652

          k =-0.5000 0.5000-0.2500 (  2024 PWs)   bands (ev):

    -2.9149   2.5678   9.2437  10.2967

          k =-0.5000-0.5000 0.2500 (  2024 PWs)   bands (ev):

    -2.8513   1.6143   8.7260  12.4548

          k =-0.1250-0.3750 0.3750 (  2027 PWs)   bands (ev):

    -5.2191   5.4007   9.7939  12.5089

          k =-0.3750 0.3750-0.1250 (  2027 PWs)   bands (ev):

    -5.2080   6.5873  10.0685  10.3851

          k =-0.3750-0.3750 0.1250 (  2027 PWs)   bands (ev):

    -5.2392   5.2281   9.2188  13.9304

          k =-0.2500 0.2500 0.0000 (  2027 PWs)   bands (ev):

    -6.8071  10.6530  10.8295  11.5898

          k =-0.2500-0.2500 0.0000 (  2027 PWs)   bands (ev):

    -6.8279   8.1851  11.0567  15.5967

          k = 0.0000 0.0000 0.5000 (  2020 PWs)   bands (ev):

    -5.6329   8.3338   9.7431  10.5582

          k = 0.6250 0.1250-0.1250 (  2026 PWs)   bands (ev):

    -4.0852   5.3623   8.7671  10.1946

          k = 0.1250-0.1250 0.6250 (  2026 PWs)   bands (ev):

    -4.0504   6.5898   7.6861   9.4443

          k = 0.1250 0.1250-0.6250 (  2026 PWs)   bands (ev):

    -4.0503   5.9376   8.0595   9.7635

          k =-0.2500-0.7500 0.7500 (  2034 PWs)   bands (ev):

    -1.7451   2.3133   7.4992   9.3574

          k =-0.7500 0.7500-0.2500 (  2034 PWs)   bands (ev):

    -1.8037   3.2883   7.6423   7.7942

          k =-0.7500-0.7500 0.2500 (  2034 PWs)   bands (ev):

    -1.7111   2.5347   6.5724   9.8159

          k =-0.1250-0.6250 0.6250 (  2025 PWs)   bands (ev):

    -0.9074   1.4886   6.3897   9.9088

          k =-0.6250 0.6250-0.1250 (  2025 PWs)   bands (ev):

    -1.1781   2.6873   6.6032   8.2058

          k =-0.6250-0.6250 0.1250 (  2025 PWs)   bands (ev):

    -0.8751   1.4570   5.6963  10.7015

          k =-0.5000 0.5000 0.0000 (  2017 PWs)   bands (ev):

    -3.3975   6.1481   6.2380   9.1777

          k =-0.5000-0.5000 0.0000 (  2017 PWs)   bands (ev):

    -3.4058   4.1017   6.2817  12.2703

          k = 0.0000 0.0000 0.7500 (  2028 PWs)   bands (ev):

    -2.7692   5.4991   6.8974   8.7373

          k =-0.1250-0.8750 0.8750 (  2038 PWs)   bands (ev):

    -0.7856   2.7012   6.8376   8.1336

          k =-0.8750 0.8750-0.1250 (  2038 PWs)   bands (ev):

    -0.7785   3.3727   6.7237   7.0541

          k =-0.8750-0.8750 0.1250 (  2038 PWs)   bands (ev):

    -0.7433   3.3993   5.2927   8.5587

          k =-0.7500 0.7500 0.0000 (  2045 PWs)   bands (ev):

     0.4076   2.8041   4.8387   7.2123

          k =-0.7500-0.7500 0.0000 (  2045 PWs)   bands (ev):

     1.4445   1.4617   3.5127   9.2501

          k = 0.0000 0.0000-1.0000 (  2044 PWs)   bands (ev):

     0.5403   1.6314   6.3837   8.1184

          k = 0.5000 0.2500 0.0000 (  2028 PWs)   bands (ev):

    -5.0929   6.0039   8.6011  12.7546

          k = 0.0000-0.5000-0.2500 (  2028 PWs)   bands (ev):

    -5.0751   6.7809   8.3662  11.7489

          k = 0.2500 0.0000 0.5000 (  2028 PWs)   bands (ev):

    -5.0604   6.9891   8.1658  11.4386

          k =-0.3750-0.6250 0.8750 (  2030 PWs)   bands (ev):

    -2.9822   3.2433   7.2870  11.0999

          k = 0.8750 0.3750 0.6250 (  2030 PWs)   bands (ev):

    -2.9727   3.3261   8.0870   9.9730

          k =-0.8750 0.3750-0.6250 (  2030 PWs)   bands (ev):

    -2.9965   4.4073   6.3614  10.6618

          k =-0.6250 0.8750-0.3750 (  2030 PWs)   bands (ev):

    -2.9746   4.2516   6.8139  10.0965

          k =-0.6250-0.8750 0.3750 (  2030 PWs)   bands (ev):

    -2.9510   3.4464   7.5451  10.2225

          k =-0.2500-0.5000 0.7500 (  2026 PWs)   bands (ev):

    -0.5825   0.4589   7.2149  10.0642

          k = 0.7500 0.2500 0.5000 (  2026 PWs)   bands (ev):

    -0.5925   0.4237   8.5232   8.7656

          k =-0.7500 0.2500-0.5000 (  2026 PWs)   bands (ev):

    -1.1497   1.8948   6.2072  10.2136

          k =-0.2500-0.7500 1.0000 (  2035 PWs)   bands (ev):

    -2.2766   3.9085   6.9431   8.9332

          k = 1.0000 0.2500 0.7500 (  2035 PWs)   bands (ev):

    -2.2882   4.4447   6.8464   8.3685

          k =-0.7500 1.0000-0.2500 (  2035 PWs)   bands (ev):

    -2.2436   5.0216   6.0416   8.2279

          k =-0.1250-0.6250 0.8750 (  2029 PWs)   bands (ev):

     0.2010   1.8633   5.4702   7.9552

          k = 0.8750 0.1250 0.6250 (  2029 PWs)   bands (ev):

     0.1322   1.9026   6.1317   7.3097

          k =-0.8750 0.1250-0.6250 (  2029 PWs)   bands (ev):

    -0.1545   3.2689   4.3498   8.0178

          k =-0.6250 0.8750-0.1250 (  2029 PWs)   bands (ev):

    -0.1231   3.1109   5.7382   6.4147

          k =-0.6250-0.8750 0.1250 (  2029 PWs)   bands (ev):

     0.1623   2.2938   4.7112   8.1976

          k = 0.7500 0.0000 0.5000 (  2033 PWs)   bands (ev):

    -0.8268   3.1859   4.8455   8.6696

          k =-0.5000 0.7500 0.0000 (  2033 PWs)   bands (ev):

    -0.9292   4.3979   4.9918   6.9878

          k =-0.5000-0.7500 0.0000 (  2033 PWs)   bands (ev):

    -0.7040   2.6061   4.7230   9.3195

          k = 0.0000 1.0000-0.2500 (  2032 PWs)   bands (ev):

     1.2216   1.2216   6.6207   6.6207

          k = 0.2500 0.0000-1.0000 (  2032 PWs)   bands (ev):

     0.8411   2.1089   5.3228   7.0887

          k = 0.0000 1.0000-0.5000 (  2048 PWs)   bands (ev):

     1.6870   1.6870   5.5521   5.5521

!    total energy              =     -35.58315330 Ry
     Harris-Foulkes estimate   =     -35.58315369 Ry
     estimated scf accuracy    <       0.00000061 Ry

     total all-electron energy =      -151.142150 Ry

     The total energy is the sum of the following terms:

     one-electron contribution =       9.02397787 Ry
     hartree contribution      =       1.89184574 Ry
     xc contribution           =      -8.48087256 Ry
     ewald contribution        =     -25.94064361 Ry
     one-center paw contrib.   =     -12.07746074 Ry

     convergence has been achieved in   6 iterations

     Forces acting on atoms (Ry/au):

     atom    1 type  1   force =     0.00000000    0.00000000   -0.25841278
     atom    2 type  1   force =     0.00000000    0.00000000    0.25841278

     Total force =     0.365451     Total SCF correction =     0.000175

     Writing output data file diamond.save

     init_run     :      3.35s CPU      3.34s WALL (       1 calls)
     electrons    :     33.46s CPU     32.16s WALL (       1 calls)
     forces       :      0.62s CPU      0.54s WALL (       1 calls)

     Called by init_run:
     wfcinit      :      2.58s CPU      2.52s WALL (       1 calls)
     potinit      :      0.04s CPU      0.05s WALL (       1 calls)

     Called by electrons:
     c_bands      :     28.64s CPU     27.17s WALL (       6 calls)
     sum_band     :      4.29s CPU      4.17s WALL (       6 calls)
     v_of_rho     :      0.06s CPU      0.08s WALL (       7 calls)
     newd         :      0.20s CPU      0.22s WALL (       7 calls)
     mix_rho      :      0.10s CPU      0.10s WALL (       6 calls)

     Called by c_bands:
     init_us_2    :      1.46s CPU      1.61s WALL (    1330 calls)
     cegterg      :     26.94s CPU     24.36s WALL (     570 calls)

     Called by *egterg:
     h_psi        :     22.64s CPU     21.75s WALL (    2325 calls)
     s_psi        :      1.70s CPU      1.12s WALL (    2325 calls)
     g_psi        :      0.15s CPU      0.16s WALL (    1660 calls)
     cdiaghg      :      0.40s CPU      0.47s WALL (    2230 calls)

     Called by h_psi:
     add_vuspsi   :      1.83s CPU      1.17s WALL (    2325 calls)

     General routines
     calbec       :      2.98s CPU      1.72s WALL (    2990 calls)
     fft          :      0.05s CPU      0.07s WALL (      45 calls)
     fftw         :     18.31s CPU     18.85s WALL (   18012 calls)
     davcio       :      0.17s CPU      1.24s WALL (    1900 calls)


     PAW routines
     PAW_pot      :      0.20s CPU      0.20s WALL (       7 calls)
     PAW_ddot     :      0.07s CPU      0.07s WALL (      36 calls)
     PAW_symme    :      0.00s CPU      0.00s WALL (      13 calls)

     PWSCF        :    37.89s CPU        36.66s WALL


   This run was terminated on:  21:36:38  26Mar2012            

=------------------------------------------------------------------------------=
   JOB DONE.
=------------------------------------------------------------------------------=
