
     Program PWSCF v.4.3.2      starts on 26Mar2012 at 21:40:51 

     This program is part of the open-source Quantum ESPRESSO suite
     for quantum simulation of materials; please cite
         "P. Giannozzi et al., J. Phys.:Condens. Matter 21 395502 (2009);
          URL http://www.quantum-espresso.org", 
     in publications or presentations arising from this work. More details at
     http://www.quantum-espresso.org/wiki/index.php/Citing_Quantum-ESPRESSO

     Current dimensions of program PWSCF are:
     Max number of different atomic species (ntypx) = 10
     Max number of k-points (npk) =  40000
     Max angular momentum in pseudopotentials (lmaxx) =  3
     Waiting for input...
     Reading input from stdin
     warning: symmetry operation #  5 not allowed.   fractional translation:
       0.2000000  0.2000000  0.3000000  in crystal coordinates
     warning: symmetry operation #  6 not allowed.   fractional translation:
       0.2000000  0.2000000  0.3000000  in crystal coordinates
     warning: symmetry operation # 25 not allowed.   fractional translation:
       0.2000000  0.2000000  0.3000000  in crystal coordinates
     warning: symmetry operation # 26 not allowed.   fractional translation:
       0.2000000  0.2000000  0.3000000  in crystal coordinates

     G-vector sticks info
     --------------------
     sticks:   dense  smooth     PW     G-vecs:    dense   smooth      PW
     Sum         859     859    253                16865    16865    2741



     bravais-lattice index     =            2
     lattice parameter (alat)  =       6.7000  a.u.
     unit-cell volume          =      75.1908 (a.u.)^3
     number of atoms/cell      =            2
     number of atomic types    =            1
     number of electrons       =         8.00
     number of Kohn-Sham states=            4
     kinetic-energy cutoff     =     140.0000  Ry
     charge density cutoff     =     560.0000  Ry
     convergence threshold     =      1.0E-06
     mixing beta               =       0.7000
     number of iterations used =            8  plain     mixing
     Exchange-correlation      =  SLA  PZ   NOGX NOGC ( 1 1 0 0 0)
     EXX-fraction              =        0.00

     celldm(1)=   6.700000  celldm(2)=   0.000000  celldm(3)=   0.000000
     celldm(4)=   0.000000  celldm(5)=   0.000000  celldm(6)=   0.000000

     crystal axes: (cart. coord. in units of alat)
               a(1) = (  -0.500000   0.000000   0.500000 )  
               a(2) = (   0.000000   0.500000   0.500000 )  
               a(3) = (  -0.500000   0.500000   0.000000 )  

     reciprocal axes: (cart. coord. in units 2 pi/alat)
               b(1) = ( -1.000000 -1.000000  1.000000 )  
               b(2) = (  1.000000  1.000000  1.000000 )  
               b(3) = ( -1.000000  1.000000 -1.000000 )  


     PseudoPot. # 1 for  C read from file:
     /home/mullspace/Documents/espresso-4.3.2/pseudo/C.pz-kjpaw.UPF
     MD5 check sum: 414e6e825ae75add557e798061b49a04
     Pseudo is Projector augmented-wave + core cor, Zval =  4.0
     Generated using "atomic" code by A. Dal Corso (espresso distribution)
     Shape of augmentation charge: BESSEL
     Using radial grid of 1073 points,  4 beta functions with: 
                l(1) =   0
                l(2) =   0
                l(3) =   1
                l(4) =   1
     Q(r) pseudized with 0 coefficients 


     atomic species   valence    mass     pseudopotential
        C              4.00    12.01070      C( 1.00)

      4 Sym.Ops. (no inversion)


   Cartesian axes

     site n.     atom                  positions (alat units)
         1           C   tau(   1) = (   0.0000000   0.0000000   0.0500000  )
         2           C   tau(   2) = (   0.2500000   0.2500000   0.2500000  )

     number of k points=    95
                       cart. coord. in units 2pi/alat
        k(    1) = (   0.0000000   0.0000000   0.0000000), wk =   0.0039063
        k(    2) = (  -0.1250000   0.1250000  -0.1250000), wk =   0.0156250
        k(    3) = (  -0.2500000   0.2500000  -0.2500000), wk =   0.0156250
        k(    4) = (  -0.3750000   0.3750000  -0.3750000), wk =   0.0156250
        k(    5) = (   0.5000000  -0.5000000   0.5000000), wk =   0.0078125
        k(    6) = (   0.0000000   0.2500000   0.0000000), wk =   0.0156250
        k(    7) = (  -0.1250000   0.3750000  -0.1250000), wk =   0.0312500
        k(    8) = (  -0.2500000   0.5000000  -0.2500000), wk =   0.0312500
        k(    9) = (   0.6250000  -0.3750000   0.6250000), wk =   0.0312500
        k(   10) = (   0.5000000  -0.2500000   0.5000000), wk =   0.0312500
        k(   11) = (   0.3750000  -0.1250000   0.3750000), wk =   0.0312500
        k(   12) = (   0.2500000   0.0000000   0.2500000), wk =   0.0312500
        k(   13) = (   0.0000000   0.5000000   0.0000000), wk =   0.0156250
        k(   14) = (  -0.1250000   0.6250000  -0.1250000), wk =   0.0312500
        k(   15) = (   0.7500000  -0.2500000   0.7500000), wk =   0.0312500
        k(   16) = (   0.6250000  -0.1250000   0.6250000), wk =   0.0312500
        k(   17) = (   0.5000000   0.0000000   0.5000000), wk =   0.0312500
        k(   18) = (   0.0000000   0.7500000   0.0000000), wk =   0.0156250
        k(   19) = (   0.8750000  -0.1250000   0.8750000), wk =   0.0312500
        k(   20) = (   0.7500000   0.0000000   0.7500000), wk =   0.0312500
        k(   21) = (   0.0000000  -1.0000000   0.0000000), wk =   0.0078125
        k(   22) = (  -0.2500000   0.5000000   0.0000000), wk =   0.0156250
        k(   23) = (   0.6250000  -0.3750000   0.8750000), wk =   0.0312500
        k(   24) = (   0.5000000  -0.2500000   0.7500000), wk =   0.0312500
        k(   25) = (   0.7500000  -0.2500000   1.0000000), wk =   0.0156250
        k(   26) = (   0.6250000  -0.1250000   0.8750000), wk =   0.0312500
        k(   27) = (   0.5000000   0.0000000   0.7500000), wk =   0.0312500
        k(   28) = (  -0.2500000  -1.0000000   0.0000000), wk =   0.0156250
        k(   29) = (  -0.5000000  -1.0000000   0.0000000), wk =   0.0156250
        k(   30) = (   0.1250000   0.1250000  -0.1250000), wk =   0.0156250
        k(   31) = (   0.2500000   0.2500000  -0.2500000), wk =   0.0156250
        k(   32) = (   0.3750000   0.3750000  -0.3750000), wk =   0.0156250
        k(   33) = (  -0.5000000  -0.5000000   0.5000000), wk =   0.0078125
        k(   34) = (   0.0000000   0.0000000   0.2500000), wk =   0.0078125
        k(   35) = (   0.3750000   0.1250000  -0.1250000), wk =   0.0312500
        k(   36) = (   0.1250000  -0.1250000   0.3750000), wk =   0.0156250
        k(   37) = (   0.1250000   0.1250000  -0.3750000), wk =   0.0156250
        k(   38) = (   0.5000000   0.2500000  -0.2500000), wk =   0.0312500
        k(   39) = (   0.2500000  -0.2500000   0.5000000), wk =   0.0156250
        k(   40) = (   0.2500000   0.2500000  -0.5000000), wk =   0.0156250
        k(   41) = (  -0.3750000  -0.6250000   0.6250000), wk =   0.0312500
        k(   42) = (  -0.6250000   0.6250000  -0.3750000), wk =   0.0156250
        k(   43) = (  -0.6250000  -0.6250000   0.3750000), wk =   0.0156250
        k(   44) = (  -0.2500000  -0.5000000   0.5000000), wk =   0.0312500
        k(   45) = (  -0.5000000   0.5000000  -0.2500000), wk =   0.0156250
        k(   46) = (  -0.5000000  -0.5000000   0.2500000), wk =   0.0156250
        k(   47) = (  -0.1250000  -0.3750000   0.3750000), wk =   0.0312500
        k(   48) = (  -0.3750000   0.3750000  -0.1250000), wk =   0.0156250
        k(   49) = (  -0.3750000  -0.3750000   0.1250000), wk =   0.0156250
        k(   50) = (  -0.2500000   0.2500000   0.0000000), wk =   0.0078125
        k(   51) = (  -0.2500000  -0.2500000   0.0000000), wk =   0.0078125
        k(   52) = (   0.0000000   0.0000000   0.5000000), wk =   0.0078125
        k(   53) = (   0.6250000   0.1250000  -0.1250000), wk =   0.0312500
        k(   54) = (   0.1250000  -0.1250000   0.6250000), wk =   0.0156250
        k(   55) = (   0.1250000   0.1250000  -0.6250000), wk =   0.0156250
        k(   56) = (  -0.2500000  -0.7500000   0.7500000), wk =   0.0312500
        k(   57) = (  -0.7500000   0.7500000  -0.2500000), wk =   0.0156250
        k(   58) = (  -0.7500000  -0.7500000   0.2500000), wk =   0.0156250
        k(   59) = (  -0.1250000  -0.6250000   0.6250000), wk =   0.0312500
        k(   60) = (  -0.6250000   0.6250000  -0.1250000), wk =   0.0156250
        k(   61) = (  -0.6250000  -0.6250000   0.1250000), wk =   0.0156250
        k(   62) = (  -0.5000000   0.5000000   0.0000000), wk =   0.0078125
        k(   63) = (  -0.5000000  -0.5000000   0.0000000), wk =   0.0078125
        k(   64) = (   0.0000000   0.0000000   0.7500000), wk =   0.0078125
        k(   65) = (  -0.1250000  -0.8750000   0.8750000), wk =   0.0312500
        k(   66) = (  -0.8750000   0.8750000  -0.1250000), wk =   0.0156250
        k(   67) = (  -0.8750000  -0.8750000   0.1250000), wk =   0.0156250
        k(   68) = (  -0.7500000   0.7500000   0.0000000), wk =   0.0078125
        k(   69) = (  -0.7500000  -0.7500000   0.0000000), wk =   0.0078125
        k(   70) = (   0.0000000   0.0000000  -1.0000000), wk =   0.0039063
        k(   71) = (   0.5000000   0.2500000   0.0000000), wk =   0.0156250
        k(   72) = (   0.0000000  -0.5000000  -0.2500000), wk =   0.0312500
        k(   73) = (   0.2500000   0.0000000   0.5000000), wk =   0.0312500
        k(   74) = (  -0.3750000  -0.6250000   0.8750000), wk =   0.0312500
        k(   75) = (   0.8750000   0.3750000   0.6250000), wk =   0.0312500
        k(   76) = (  -0.8750000   0.3750000  -0.6250000), wk =   0.0312500
        k(   77) = (  -0.6250000   0.8750000  -0.3750000), wk =   0.0312500
        k(   78) = (  -0.6250000  -0.8750000   0.3750000), wk =   0.0312500
        k(   79) = (  -0.2500000  -0.5000000   0.7500000), wk =   0.0312500
        k(   80) = (   0.7500000   0.2500000   0.5000000), wk =   0.0156250
        k(   81) = (  -0.7500000   0.2500000  -0.5000000), wk =   0.0156250
        k(   82) = (  -0.2500000  -0.7500000   1.0000000), wk =   0.0156250
        k(   83) = (   1.0000000   0.2500000   0.7500000), wk =   0.0312500
        k(   84) = (  -0.7500000   1.0000000  -0.2500000), wk =   0.0312500
        k(   85) = (  -0.1250000  -0.6250000   0.8750000), wk =   0.0312500
        k(   86) = (   0.8750000   0.1250000   0.6250000), wk =   0.0312500
        k(   87) = (  -0.8750000   0.1250000  -0.6250000), wk =   0.0312500
        k(   88) = (  -0.6250000   0.8750000  -0.1250000), wk =   0.0312500
        k(   89) = (  -0.6250000  -0.8750000   0.1250000), wk =   0.0312500
        k(   90) = (   0.7500000   0.0000000   0.5000000), wk =   0.0312500
        k(   91) = (  -0.5000000   0.7500000   0.0000000), wk =   0.0156250
        k(   92) = (  -0.5000000  -0.7500000   0.0000000), wk =   0.0156250
        k(   93) = (   0.0000000   1.0000000  -0.2500000), wk =   0.0156250
        k(   94) = (   0.2500000   0.0000000  -1.0000000), wk =   0.0156250
        k(   95) = (   0.0000000   1.0000000  -0.5000000), wk =   0.0078125

     Dense  grid:    16865 G-vectors     FFT dimensions: (  36,  36,  36)

     Largest allocated arrays     est. size (Mb)     dimensions
        Kohn-Sham Wavefunctions         0.13 Mb     (   2129,    4)
        NL pseudopotentials             0.52 Mb     (   2129,   16)
        Each V/rho on FFT grid          0.71 Mb     (  46656)
        Each G-vector array             0.13 Mb     (  16865)
        G-vector shells                 0.00 Mb     (    214)
     Largest temporary arrays     est. size (Mb)     dimensions
        Auxiliary wavefunctions         0.52 Mb     (   2129,   16)
        Each subspace H/S matrix        0.00 Mb     (  16,  16)
        Each <psi_i|beta_j> matrix      0.00 Mb     (     16,    4)
        Arrays for rho mixing           5.70 Mb     (  46656,   8)

     Initial potential from superposition of free atoms

     starting charge    7.99993, renormalised to    8.00000
     Starting wfc are    8 atomic wfcs

     total cpu time spent up to now is        3.7 secs

     per-process dynamical memory:    10.7 Mb

     Self-consistent Calculation

     iteration #  1     ecut=   140.00 Ry     beta=0.70
     Davidson diagonalization with overlap
     ethr =  1.00E-02,  avg # of iterations =  2.9

     total cpu time spent up to now is        8.3 secs

     total energy              =     -35.55519990 Ry
     Harris-Foulkes estimate   =     -35.61122954 Ry
     estimated scf accuracy    <       0.10185595 Ry

     iteration #  2     ecut=   140.00 Ry     beta=0.70
     Davidson diagonalization with overlap
     ethr =  1.27E-03,  avg # of iterations =  2.9

     total cpu time spent up to now is       13.9 secs

     total energy              =     -35.58185251 Ry
     Harris-Foulkes estimate   =     -35.58636204 Ry
     estimated scf accuracy    <       0.00863999 Ry

     iteration #  3     ecut=   140.00 Ry     beta=0.70
     Davidson diagonalization with overlap
     ethr =  1.08E-04,  avg # of iterations =  2.7

     total cpu time spent up to now is       18.9 secs

     total energy              =     -35.58577712 Ry
     Harris-Foulkes estimate   =     -35.58629151 Ry
     estimated scf accuracy    <       0.00079977 Ry

     iteration #  4     ecut=   140.00 Ry     beta=0.70
     Davidson diagonalization with overlap
     ethr =  1.00E-05,  avg # of iterations =  3.1

     total cpu time spent up to now is       24.8 secs

     total energy              =     -35.58606187 Ry
     Harris-Foulkes estimate   =     -35.58606894 Ry
     estimated scf accuracy    <       0.00002744 Ry

     iteration #  5     ecut=   140.00 Ry     beta=0.70
     Davidson diagonalization with overlap
     ethr =  3.43E-07,  avg # of iterations =  2.5

     total cpu time spent up to now is       29.4 secs

     total energy              =     -35.58606769 Ry
     Harris-Foulkes estimate   =     -35.58607240 Ry
     estimated scf accuracy    <       0.00000637 Ry

     iteration #  6     ecut=   140.00 Ry     beta=0.70
     Davidson diagonalization with overlap
     ethr =  7.97E-08,  avg # of iterations =  3.2

     total cpu time spent up to now is       35.4 secs

     End of self-consistent calculation

          k = 0.0000 0.0000 0.0000 (  2085 PWs)   bands (ev):

    -8.1753  10.6978  13.8691  16.1512

          k =-0.1250 0.1250-0.1250 (  2094 PWs)   bands (ev):

    -7.7391  10.3335  11.5835  14.2582

          k =-0.2500 0.2500-0.2500 (  2100 PWs)   bands (ev):

    -6.4464   7.2218   9.5955  13.0625

          k =-0.3750 0.3750-0.3750 (  2099 PWs)   bands (ev):

    -4.3864   3.0417   8.9912  12.3552

          k = 0.5000-0.5000 0.5000 (  2120 PWs)   bands (ev):

    -2.5339   0.4509   8.7686  12.1226

          k = 0.0000 0.2500 0.0000 (  2097 PWs)   bands (ev):

    -7.5983   9.5960  11.9259  13.9564

          k =-0.1250 0.3750-0.1250 (  2097 PWs)   bands (ev):

    -6.5914   8.8757   9.0678  11.9303

          k =-0.2500 0.5000-0.2500 (  2102 PWs)   bands (ev):

    -4.7783   4.6946   8.3265  11.1109

          k = 0.6250-0.3750 0.6250 (  2102 PWs)   bands (ev):

    -2.5456   1.2641   7.7565  10.9521

          k = 0.5000-0.2500 0.5000 (  2104 PWs)   bands (ev):

    -3.2438   2.1831   7.5379  11.4442

          k = 0.3750-0.1250 0.3750 (  2100 PWs)   bands (ev):

    -5.4623   5.9917   7.7953  12.3922

          k = 0.2500 0.0000 0.2500 (  2111 PWs)   bands (ev):

    -7.0211   8.4575  10.1943  13.3970

          k = 0.0000 0.5000 0.0000 (  2085 PWs)   bands (ev):

    -5.8883   7.3243   9.4315  10.7603

          k =-0.1250 0.6250-0.1250 (  2097 PWs)   bands (ev):

    -4.3581   6.3577   6.8955   9.2390

          k = 0.7500-0.2500 0.7500 (  2113 PWs)   bands (ev):

    -2.2137   3.2003   5.5179   9.0451

          k = 0.6250-0.1250 0.6250 (  2112 PWs)   bands (ev):

    -1.5483   2.3157   4.7596   9.6248

          k = 0.5000 0.0000 0.5000 (  2099 PWs)   bands (ev):

    -3.6861   4.4054   5.6486  10.7330

          k = 0.0000 0.7500 0.0000 (  2104 PWs)   bands (ev):

    -3.1272   4.2938   7.7790   8.1711

          k = 0.8750-0.1250 0.8750 (  2109 PWs)   bands (ev):

    -1.2227   2.7092   5.8907   7.7249

          k = 0.7500 0.0000 0.7500 (  2129 PWs)   bands (ev):

     0.2737   1.5103   4.0572   8.2448

          k = 0.0000-1.0000 0.0000 (  2100 PWs)   bands (ev):

     0.4640   0.4640   7.2720   7.2720

          k =-0.2500 0.5000 0.0000 (  2088 PWs)   bands (ev):

    -5.3230   7.8232   8.2618   8.6143

          k = 0.6250-0.3750 0.8750 (  2099 PWs)   bands (ev):

    -3.3237   4.0870   7.4960   7.9387

          k = 0.5000-0.2500 0.7500 (  2100 PWs)   bands (ev):

    -1.5604   1.5653   6.6768   8.4279

          k = 0.7500-0.2500 1.0000 (  2101 PWs)   bands (ev):

    -2.6403   5.0042   6.3930   6.6429

          k = 0.6250-0.1250 0.8750 (  2118 PWs)   bands (ev):

    -0.6184   3.0255   4.3031   6.9290

          k = 0.5000 0.0000 0.7500 (  2107 PWs)   bands (ev):

    -1.1880   2.9238   4.2424   8.0956

          k =-0.2500-1.0000 0.0000 (  2120 PWs)   bands (ev):

     0.6175   1.0125   5.9952   6.3490

          k =-0.5000-1.0000 0.0000 (  2120 PWs)   bands (ev):

     0.8014   2.0867   4.1834   5.6324

          k = 0.1250 0.1250-0.1250 (  2094 PWs)   bands (ev):

    -7.7436   9.3063  12.6513  14.5789

          k = 0.2500 0.2500-0.2500 (  2100 PWs)   bands (ev):

    -6.4588   5.9535  11.0250  13.1778

          k = 0.3750 0.3750-0.3750 (  2099 PWs)   bands (ev):

    -4.3627   2.1384  10.0313  12.3350

          k =-0.5000-0.5000 0.5000 (  2120 PWs)   bands (ev):

    -1.9984  -0.8568   9.7007  12.0580

          k = 0.0000 0.0000 0.2500 (  2097 PWs)   bands (ev):

    -7.5942   9.6732  12.4267  12.8429

          k = 0.3750 0.1250-0.1250 (  2097 PWs)   bands (ev):

    -6.6017   7.0909  10.3802  13.0334

          k = 0.1250-0.1250 0.3750 (  2097 PWs)   bands (ev):

    -6.5863   8.6925   8.8187  12.4089

          k = 0.1250 0.1250-0.3750 (  2097 PWs)   bands (ev):

    -6.5896   7.3720  10.9298  11.5091

          k = 0.5000 0.2500-0.2500 (  2102 PWs)   bands (ev):

    -4.7783   3.5851   9.3241  11.6217

          k = 0.2500-0.2500 0.5000 (  2102 PWs)   bands (ev):

    -4.7679   4.5660   8.2750  11.3260

          k = 0.2500 0.2500-0.5000 (  2102 PWs)   bands (ev):

    -4.7618   3.6935   9.5326  10.8830

          k =-0.3750-0.6250 0.6250 (  2102 PWs)   bands (ev):

    -2.2605   0.1389   8.9070  10.7820

          k =-0.6250 0.6250-0.3750 (  2102 PWs)   bands (ev):

    -2.5283   1.2134   8.2395  10.3047

          k =-0.6250-0.6250 0.3750 (  2102 PWs)   bands (ev):

    -2.2509   0.1636   8.5537  11.0169

          k =-0.2500-0.5000 0.5000 (  2104 PWs)   bands (ev):

    -3.1446   1.2534   8.8727  10.8968

          k =-0.5000 0.5000-0.2500 (  2104 PWs)   bands (ev):

    -3.2538   2.2339   8.7047   9.7480

          k =-0.5000-0.5000 0.2500 (  2104 PWs)   bands (ev):

    -3.1534   1.2276   8.2086  11.8641

          k =-0.1250-0.3750 0.3750 (  2100 PWs)   bands (ev):

    -5.4655   4.9330   9.2508  11.9073

          k =-0.3750 0.3750-0.1250 (  2100 PWs)   bands (ev):

    -5.4633   6.1315   9.4991   9.8355

          k =-0.3750-0.3750 0.1250 (  2100 PWs)   bands (ev):

    -5.4808   4.7401   8.7086  13.2926

          k =-0.2500 0.2500 0.0000 (  2111 PWs)   bands (ev):

    -7.0174  10.0964  10.2324  11.0060

          k =-0.2500-0.2500 0.0000 (  2111 PWs)   bands (ev):

    -7.0330   7.6261  10.5082  14.9055

          k = 0.0000 0.0000 0.5000 (  2085 PWs)   bands (ev):

    -5.8704   7.8357   9.1197  10.0334

          k = 0.6250 0.1250-0.1250 (  2097 PWs)   bands (ev):

    -4.3581   4.8488   8.2836   9.6629

          k = 0.1250-0.1250 0.6250 (  2097 PWs)   bands (ev):

    -4.3311   6.0789   7.2092   8.9269

          k = 0.1250 0.1250-0.6250 (  2097 PWs)   bands (ev):

    -4.3282   5.4666   7.5136   9.2617

          k =-0.2500-0.7500 0.7500 (  2113 PWs)   bands (ev):

    -2.0780   1.8830   7.0366   8.8580

          k =-0.7500 0.7500-0.2500 (  2113 PWs)   bands (ev):

    -2.1680   2.9028   7.1649   7.3193

          k =-0.7500-0.7500 0.2500 (  2113 PWs)   bands (ev):

    -2.0545   2.1382   6.0855   9.3114

          k =-0.1250-0.6250 0.6250 (  2112 PWs)   bands (ev):

    -1.2857   1.1150   5.9485   9.3910

          k =-0.6250 0.6250-0.1250 (  2112 PWs)   bands (ev):

    -1.5916   2.3645   6.1554   7.7068

          k =-0.6250-0.6250 0.1250 (  2112 PWs)   bands (ev):

    -1.2304   1.0587   5.2583  10.1690

          k =-0.5000 0.5000 0.0000 (  2099 PWs)   bands (ev):

    -3.7102   5.7217   5.7787   8.6423

          k =-0.5000-0.5000 0.0000 (  2099 PWs)   bands (ev):

    -3.6895   3.5992   5.8697  11.6879

          k = 0.0000 0.0000 0.7500 (  2104 PWs)   bands (ev):

    -3.0829   4.9827   6.4474   8.2661

          k =-0.1250-0.8750 0.8750 (  2109 PWs)   bands (ev):

    -1.1436   2.2207   6.4297   7.6752

          k =-0.8750 0.8750-0.1250 (  2109 PWs)   bands (ev):

    -1.1615   2.9215   6.2787   6.6460

          k =-0.8750-0.8750 0.1250 (  2109 PWs)   bands (ev):

    -1.1186   2.9344   4.8954   8.0924

          k =-0.7500 0.7500 0.0000 (  2129 PWs)   bands (ev):

    -0.0791   2.4230   4.5167   6.7496

          k =-0.7500-0.7500 0.0000 (  2129 PWs)   bands (ev):

     0.9753   1.0380   3.2051   8.7627

          k = 0.0000 0.0000-1.0000 (  2100 PWs)   bands (ev):

     0.0823   1.2771   5.9503   7.6651

          k = 0.5000 0.2500 0.0000 (  2088 PWs)   bands (ev):

    -5.3384   5.4730   8.1259  12.1515

          k = 0.0000-0.5000-0.2500 (  2088 PWs)   bands (ev):

    -5.3270   6.2615   7.8759  11.1688

          k = 0.2500 0.0000 0.5000 (  2088 PWs)   bands (ev):

    -5.3132   6.4917   7.6573  10.8578

          k =-0.3750-0.6250 0.8750 (  2099 PWs)   bands (ev):

    -3.2779   2.7887   6.8201  10.5573

          k = 0.8750 0.3750 0.6250 (  2099 PWs)   bands (ev):

    -3.2780   2.8901   7.6060   9.4423

          k =-0.8750 0.3750-0.6250 (  2099 PWs)   bands (ev):

    -3.3145   4.0029   5.8685  10.1309

          k =-0.6250 0.8750-0.3750 (  2099 PWs)   bands (ev):

    -3.2934   3.8388   6.3399   9.5588

          k =-0.6250-0.8750 0.3750 (  2099 PWs)   bands (ev):

    -3.2594   3.0287   7.0396   9.7009

          k =-0.2500-0.5000 0.7500 (  2100 PWs)   bands (ev):

    -0.9839   0.1374   6.7217   9.5579

          k = 0.7500 0.2500 0.5000 (  2100 PWs)   bands (ev):

    -0.9988   0.1012   8.0419   8.2564

          k =-0.7500 0.2500-0.5000 (  2100 PWs)   bands (ev):

    -1.5702   1.6141   5.7080   9.7040

          k =-0.2500-0.7500 1.0000 (  2101 PWs)   bands (ev):

    -2.5909   3.3906   6.5147   8.4710

          k = 1.0000 0.2500 0.7500 (  2101 PWs)   bands (ev):

    -2.6151   3.9393   6.4127   7.9133

          k =-0.7500 1.0000-0.2500 (  2101 PWs)   bands (ev):

    -2.5752   4.5171   5.6117   7.7784

          k =-0.1250-0.6250 0.8750 (  2118 PWs)   bands (ev):

    -0.1839   1.4090   5.0723   7.5214

          k = 0.8750 0.1250 0.6250 (  2118 PWs)   bands (ev):

    -0.2685   1.4659   5.7373   6.8718

          k =-0.8750 0.1250-0.6250 (  2118 PWs)   bands (ev):

    -0.5745   2.8089   4.0014   7.5788

          k =-0.6250 0.8750-0.1250 (  2118 PWs)   bands (ev):

    -0.5609   2.7168   5.3183   6.0097

          k =-0.6250-0.8750 0.1250 (  2118 PWs)   bands (ev):

    -0.2490   1.8771   4.3080   7.7552

          k = 0.7500 0.0000 0.5000 (  2107 PWs)   bands (ev):

    -1.2108   2.7274   4.4796   8.1983

          k =-0.5000 0.7500 0.0000 (  2107 PWs)   bands (ev):

    -1.3379   3.9665   4.6286   6.5257

          k =-0.5000-0.7500 0.0000 (  2107 PWs)   bands (ev):

    -1.0560   2.1137   4.3578   8.8400

          k = 0.0000 1.0000-0.2500 (  2120 PWs)   bands (ev):

     0.7913   0.7913   6.2148   6.2148

          k = 0.2500 0.0000-1.0000 (  2120 PWs)   bands (ev):

     0.3671   1.7284   4.9207   6.6797

          k = 0.0000 1.0000-0.5000 (  2120 PWs)   bands (ev):

     1.2211   1.2211   5.1975   5.1975

!    total energy              =     -35.58607040 Ry
     Harris-Foulkes estimate   =     -35.58607053 Ry
     estimated scf accuracy    <       0.00000066 Ry

     total all-electron energy =      -151.145067 Ry

     The total energy is the sum of the following terms:

     one-electron contribution =       8.60876133 Ry
     hartree contribution      =       1.92776031 Ry
     xc contribution           =      -8.41719835 Ry
     ewald contribution        =     -25.63090458 Ry
     one-center paw contrib.   =     -12.07448911 Ry

     convergence has been achieved in   6 iterations

     Forces acting on atoms (Ry/au):

     atom    1 type  1   force =     0.00000000    0.00000000   -0.24297351
     atom    2 type  1   force =     0.00000000    0.00000000    0.24297351

     Total force =     0.343616     Total SCF correction =     0.000310

     Writing output data file diamond.save

     init_run     :      3.30s CPU      3.52s WALL (       1 calls)
     electrons    :     33.47s CPU     31.66s WALL (       1 calls)
     forces       :      0.64s CPU      0.51s WALL (       1 calls)

     Called by init_run:
     wfcinit      :      2.52s CPU      2.69s WALL (       1 calls)
     potinit      :      0.05s CPU      0.05s WALL (       1 calls)

     Called by electrons:
     c_bands      :     28.68s CPU     26.53s WALL (       6 calls)
     sum_band     :      4.23s CPU      4.10s WALL (       6 calls)
     v_of_rho     :      0.07s CPU      0.07s WALL (       7 calls)
     newd         :      0.23s CPU      0.23s WALL (       7 calls)
     mix_rho      :      0.09s CPU      0.10s WALL (       6 calls)

     Called by c_bands:
     init_us_2    :      1.46s CPU      1.63s WALL (    1330 calls)
     cegterg      :     26.93s CPU     23.82s WALL (     570 calls)

     Called by *egterg:
     h_psi        :     22.39s CPU     21.24s WALL (    2304 calls)
     s_psi        :      1.70s CPU      1.11s WALL (    2304 calls)
     g_psi        :      0.18s CPU      0.17s WALL (    1639 calls)
     cdiaghg      :      0.47s CPU      0.45s WALL (    2209 calls)

     Called by h_psi:
     add_vuspsi   :      1.92s CPU      1.17s WALL (    2304 calls)

     General routines
     calbec       :      3.02s CPU      1.70s WALL (    2969 calls)
     fft          :      0.06s CPU      0.07s WALL (      45 calls)
     fftw         :     17.83s CPU     18.38s WALL (   17894 calls)
     davcio       :      0.16s CPU      1.34s WALL (    1900 calls)


     PAW routines
     PAW_pot      :      0.20s CPU      0.20s WALL (       7 calls)
     PAW_ddot     :      0.07s CPU      0.07s WALL (      36 calls)
     PAW_symme    :      0.00s CPU      0.00s WALL (      13 calls)

     PWSCF        :    37.88s CPU        36.29s WALL


   This run was terminated on:  21:41:28  26Mar2012            

=------------------------------------------------------------------------------=
   JOB DONE.
=------------------------------------------------------------------------------=
