
     Program PWSCF v.4.3.2      starts on 26Mar2012 at 23:20: 1 

     This program is part of the open-source Quantum ESPRESSO suite
     for quantum simulation of materials; please cite
         "P. Giannozzi et al., J. Phys.:Condens. Matter 21 395502 (2009);
          URL http://www.quantum-espresso.org", 
     in publications or presentations arising from this work. More details at
     http://www.quantum-espresso.org/wiki/index.php/Citing_Quantum-ESPRESSO

     Current dimensions of program PWSCF are:
     Max number of different atomic species (ntypx) = 10
     Max number of k-points (npk) =  40000
     Max angular momentum in pseudopotentials (lmaxx) =  3
     Waiting for input...
     Reading input from stdin
     warning: symmetry operation #  5 not allowed.   fractional translation:
       0.2000000  0.2000000  0.3000000  in crystal coordinates
     warning: symmetry operation #  6 not allowed.   fractional translation:
       0.2000000  0.2000000  0.3000000  in crystal coordinates
     warning: symmetry operation # 25 not allowed.   fractional translation:
       0.2000000  0.2000000  0.3000000  in crystal coordinates
     warning: symmetry operation # 26 not allowed.   fractional translation:
       0.2000000  0.2000000  0.3000000  in crystal coordinates

     G-vector sticks info
     --------------------
     sticks:   dense  smooth     PW     G-vecs:    dense   smooth      PW
     Sum         847     847    253                16145    16145    2733



     bravais-lattice index     =            2
     lattice parameter (alat)  =       6.6000  a.u.
     unit-cell volume          =      71.8740 (a.u.)^3
     number of atoms/cell      =            2
     number of atomic types    =            1
     number of electrons       =         8.00
     number of Kohn-Sham states=            4
     kinetic-energy cutoff     =     140.0000  Ry
     charge density cutoff     =     560.0000  Ry
     convergence threshold     =      1.0E-06
     mixing beta               =       0.7000
     number of iterations used =            8  plain     mixing
     Exchange-correlation      =  SLA  PZ   NOGX NOGC ( 1 1 0 0 0)
     EXX-fraction              =        0.00

     celldm(1)=   6.600000  celldm(2)=   0.000000  celldm(3)=   0.000000
     celldm(4)=   0.000000  celldm(5)=   0.000000  celldm(6)=   0.000000

     crystal axes: (cart. coord. in units of alat)
               a(1) = (  -0.500000   0.000000   0.500000 )  
               a(2) = (   0.000000   0.500000   0.500000 )  
               a(3) = (  -0.500000   0.500000   0.000000 )  

     reciprocal axes: (cart. coord. in units 2 pi/alat)
               b(1) = ( -1.000000 -1.000000  1.000000 )  
               b(2) = (  1.000000  1.000000  1.000000 )  
               b(3) = ( -1.000000  1.000000 -1.000000 )  


     PseudoPot. # 1 for  C read from file:
     /home/mullspace/Documents/espresso-4.3.2/pseudo/C.pz-kjpaw.UPF
     MD5 check sum: 414e6e825ae75add557e798061b49a04
     Pseudo is Projector augmented-wave + core cor, Zval =  4.0
     Generated using "atomic" code by A. Dal Corso (espresso distribution)
     Shape of augmentation charge: BESSEL
     Using radial grid of 1073 points,  4 beta functions with: 
                l(1) =   0
                l(2) =   0
                l(3) =   1
                l(4) =   1
     Q(r) pseudized with 0 coefficients 


     atomic species   valence    mass     pseudopotential
        C              4.00    12.01070      C( 1.00)

      4 Sym.Ops. (no inversion)


   Cartesian axes

     site n.     atom                  positions (alat units)
         1           C   tau(   1) = (   0.0000000   0.0000000   0.0500000  )
         2           C   tau(   2) = (   0.2500000   0.2500000   0.2500000  )

     number of k points=    95
                       cart. coord. in units 2pi/alat
        k(    1) = (   0.0000000   0.0000000   0.0000000), wk =   0.0039063
        k(    2) = (  -0.1250000   0.1250000  -0.1250000), wk =   0.0156250
        k(    3) = (  -0.2500000   0.2500000  -0.2500000), wk =   0.0156250
        k(    4) = (  -0.3750000   0.3750000  -0.3750000), wk =   0.0156250
        k(    5) = (   0.5000000  -0.5000000   0.5000000), wk =   0.0078125
        k(    6) = (   0.0000000   0.2500000   0.0000000), wk =   0.0156250
        k(    7) = (  -0.1250000   0.3750000  -0.1250000), wk =   0.0312500
        k(    8) = (  -0.2500000   0.5000000  -0.2500000), wk =   0.0312500
        k(    9) = (   0.6250000  -0.3750000   0.6250000), wk =   0.0312500
        k(   10) = (   0.5000000  -0.2500000   0.5000000), wk =   0.0312500
        k(   11) = (   0.3750000  -0.1250000   0.3750000), wk =   0.0312500
        k(   12) = (   0.2500000   0.0000000   0.2500000), wk =   0.0312500
        k(   13) = (   0.0000000   0.5000000   0.0000000), wk =   0.0156250
        k(   14) = (  -0.1250000   0.6250000  -0.1250000), wk =   0.0312500
        k(   15) = (   0.7500000  -0.2500000   0.7500000), wk =   0.0312500
        k(   16) = (   0.6250000  -0.1250000   0.6250000), wk =   0.0312500
        k(   17) = (   0.5000000   0.0000000   0.5000000), wk =   0.0312500
        k(   18) = (   0.0000000   0.7500000   0.0000000), wk =   0.0156250
        k(   19) = (   0.8750000  -0.1250000   0.8750000), wk =   0.0312500
        k(   20) = (   0.7500000   0.0000000   0.7500000), wk =   0.0312500
        k(   21) = (   0.0000000  -1.0000000   0.0000000), wk =   0.0078125
        k(   22) = (  -0.2500000   0.5000000   0.0000000), wk =   0.0156250
        k(   23) = (   0.6250000  -0.3750000   0.8750000), wk =   0.0312500
        k(   24) = (   0.5000000  -0.2500000   0.7500000), wk =   0.0312500
        k(   25) = (   0.7500000  -0.2500000   1.0000000), wk =   0.0156250
        k(   26) = (   0.6250000  -0.1250000   0.8750000), wk =   0.0312500
        k(   27) = (   0.5000000   0.0000000   0.7500000), wk =   0.0312500
        k(   28) = (  -0.2500000  -1.0000000   0.0000000), wk =   0.0156250
        k(   29) = (  -0.5000000  -1.0000000   0.0000000), wk =   0.0156250
        k(   30) = (   0.1250000   0.1250000  -0.1250000), wk =   0.0156250
        k(   31) = (   0.2500000   0.2500000  -0.2500000), wk =   0.0156250
        k(   32) = (   0.3750000   0.3750000  -0.3750000), wk =   0.0156250
        k(   33) = (  -0.5000000  -0.5000000   0.5000000), wk =   0.0078125
        k(   34) = (   0.0000000   0.0000000   0.2500000), wk =   0.0078125
        k(   35) = (   0.3750000   0.1250000  -0.1250000), wk =   0.0312500
        k(   36) = (   0.1250000  -0.1250000   0.3750000), wk =   0.0156250
        k(   37) = (   0.1250000   0.1250000  -0.3750000), wk =   0.0156250
        k(   38) = (   0.5000000   0.2500000  -0.2500000), wk =   0.0312500
        k(   39) = (   0.2500000  -0.2500000   0.5000000), wk =   0.0156250
        k(   40) = (   0.2500000   0.2500000  -0.5000000), wk =   0.0156250
        k(   41) = (  -0.3750000  -0.6250000   0.6250000), wk =   0.0312500
        k(   42) = (  -0.6250000   0.6250000  -0.3750000), wk =   0.0156250
        k(   43) = (  -0.6250000  -0.6250000   0.3750000), wk =   0.0156250
        k(   44) = (  -0.2500000  -0.5000000   0.5000000), wk =   0.0312500
        k(   45) = (  -0.5000000   0.5000000  -0.2500000), wk =   0.0156250
        k(   46) = (  -0.5000000  -0.5000000   0.2500000), wk =   0.0156250
        k(   47) = (  -0.1250000  -0.3750000   0.3750000), wk =   0.0312500
        k(   48) = (  -0.3750000   0.3750000  -0.1250000), wk =   0.0156250
        k(   49) = (  -0.3750000  -0.3750000   0.1250000), wk =   0.0156250
        k(   50) = (  -0.2500000   0.2500000   0.0000000), wk =   0.0078125
        k(   51) = (  -0.2500000  -0.2500000   0.0000000), wk =   0.0078125
        k(   52) = (   0.0000000   0.0000000   0.5000000), wk =   0.0078125
        k(   53) = (   0.6250000   0.1250000  -0.1250000), wk =   0.0312500
        k(   54) = (   0.1250000  -0.1250000   0.6250000), wk =   0.0156250
        k(   55) = (   0.1250000   0.1250000  -0.6250000), wk =   0.0156250
        k(   56) = (  -0.2500000  -0.7500000   0.7500000), wk =   0.0312500
        k(   57) = (  -0.7500000   0.7500000  -0.2500000), wk =   0.0156250
        k(   58) = (  -0.7500000  -0.7500000   0.2500000), wk =   0.0156250
        k(   59) = (  -0.1250000  -0.6250000   0.6250000), wk =   0.0312500
        k(   60) = (  -0.6250000   0.6250000  -0.1250000), wk =   0.0156250
        k(   61) = (  -0.6250000  -0.6250000   0.1250000), wk =   0.0156250
        k(   62) = (  -0.5000000   0.5000000   0.0000000), wk =   0.0078125
        k(   63) = (  -0.5000000  -0.5000000   0.0000000), wk =   0.0078125
        k(   64) = (   0.0000000   0.0000000   0.7500000), wk =   0.0078125
        k(   65) = (  -0.1250000  -0.8750000   0.8750000), wk =   0.0312500
        k(   66) = (  -0.8750000   0.8750000  -0.1250000), wk =   0.0156250
        k(   67) = (  -0.8750000  -0.8750000   0.1250000), wk =   0.0156250
        k(   68) = (  -0.7500000   0.7500000   0.0000000), wk =   0.0078125
        k(   69) = (  -0.7500000  -0.7500000   0.0000000), wk =   0.0078125
        k(   70) = (   0.0000000   0.0000000  -1.0000000), wk =   0.0039063
        k(   71) = (   0.5000000   0.2500000   0.0000000), wk =   0.0156250
        k(   72) = (   0.0000000  -0.5000000  -0.2500000), wk =   0.0312500
        k(   73) = (   0.2500000   0.0000000   0.5000000), wk =   0.0312500
        k(   74) = (  -0.3750000  -0.6250000   0.8750000), wk =   0.0312500
        k(   75) = (   0.8750000   0.3750000   0.6250000), wk =   0.0312500
        k(   76) = (  -0.8750000   0.3750000  -0.6250000), wk =   0.0312500
        k(   77) = (  -0.6250000   0.8750000  -0.3750000), wk =   0.0312500
        k(   78) = (  -0.6250000  -0.8750000   0.3750000), wk =   0.0312500
        k(   79) = (  -0.2500000  -0.5000000   0.7500000), wk =   0.0312500
        k(   80) = (   0.7500000   0.2500000   0.5000000), wk =   0.0156250
        k(   81) = (  -0.7500000   0.2500000  -0.5000000), wk =   0.0156250
        k(   82) = (  -0.2500000  -0.7500000   1.0000000), wk =   0.0156250
        k(   83) = (   1.0000000   0.2500000   0.7500000), wk =   0.0312500
        k(   84) = (  -0.7500000   1.0000000  -0.2500000), wk =   0.0312500
        k(   85) = (  -0.1250000  -0.6250000   0.8750000), wk =   0.0312500
        k(   86) = (   0.8750000   0.1250000   0.6250000), wk =   0.0312500
        k(   87) = (  -0.8750000   0.1250000  -0.6250000), wk =   0.0312500
        k(   88) = (  -0.6250000   0.8750000  -0.1250000), wk =   0.0312500
        k(   89) = (  -0.6250000  -0.8750000   0.1250000), wk =   0.0312500
        k(   90) = (   0.7500000   0.0000000   0.5000000), wk =   0.0312500
        k(   91) = (  -0.5000000   0.7500000   0.0000000), wk =   0.0156250
        k(   92) = (  -0.5000000  -0.7500000   0.0000000), wk =   0.0156250
        k(   93) = (   0.0000000   1.0000000  -0.2500000), wk =   0.0156250
        k(   94) = (   0.2500000   0.0000000  -1.0000000), wk =   0.0156250
        k(   95) = (   0.0000000   1.0000000  -0.5000000), wk =   0.0078125

     Dense  grid:    16145 G-vectors     FFT dimensions: (  36,  36,  36)
