
     Program PWSCF v.4.3.2      starts on 26Mar2012 at 21:43:54 

     This program is part of the open-source Quantum ESPRESSO suite
     for quantum simulation of materials; please cite
         "P. Giannozzi et al., J. Phys.:Condens. Matter 21 395502 (2009);
          URL http://www.quantum-espresso.org", 
     in publications or presentations arising from this work. More details at
     http://www.quantum-espresso.org/wiki/index.php/Citing_Quantum-ESPRESSO

     Current dimensions of program PWSCF are:
     Max number of different atomic species (ntypx) = 10
     Max number of k-points (npk) =  40000
     Max angular momentum in pseudopotentials (lmaxx) =  3
     Waiting for input...
     Reading input from stdin
     warning: symmetry operation #  5 not allowed.   fractional translation:
       0.2000000  0.2000000  0.3000000  in crystal coordinates
     warning: symmetry operation #  6 not allowed.   fractional translation:
       0.2000000  0.2000000  0.3000000  in crystal coordinates
     warning: symmetry operation # 25 not allowed.   fractional translation:
       0.2000000  0.2000000  0.3000000  in crystal coordinates
     warning: symmetry operation # 26 not allowed.   fractional translation:
       0.2000000  0.2000000  0.3000000  in crystal coordinates

     G-vector sticks info
     --------------------
     sticks:   dense  smooth     PW     G-vecs:    dense   smooth      PW
     Sum         871     871    265                17153    17153    2837



     bravais-lattice index     =            2
     lattice parameter (alat)  =       6.7500  a.u.
     unit-cell volume          =      76.8867 (a.u.)^3
     number of atoms/cell      =            2
     number of atomic types    =            1
     number of electrons       =         8.00
     number of Kohn-Sham states=            4
     kinetic-energy cutoff     =     140.0000  Ry
     charge density cutoff     =     560.0000  Ry
     convergence threshold     =      1.0E-06
     mixing beta               =       0.7000
     number of iterations used =            8  plain     mixing
     Exchange-correlation      =  SLA  PZ   NOGX NOGC ( 1 1 0 0 0)
     EXX-fraction              =        0.00

     celldm(1)=   6.750000  celldm(2)=   0.000000  celldm(3)=   0.000000
     celldm(4)=   0.000000  celldm(5)=   0.000000  celldm(6)=   0.000000

     crystal axes: (cart. coord. in units of alat)
               a(1) = (  -0.500000   0.000000   0.500000 )  
               a(2) = (   0.000000   0.500000   0.500000 )  
               a(3) = (  -0.500000   0.500000   0.000000 )  

     reciprocal axes: (cart. coord. in units 2 pi/alat)
               b(1) = ( -1.000000 -1.000000  1.000000 )  
               b(2) = (  1.000000  1.000000  1.000000 )  
               b(3) = ( -1.000000  1.000000 -1.000000 )  


     PseudoPot. # 1 for  C read from file:
     /home/mullspace/Documents/espresso-4.3.2/pseudo/C.pz-kjpaw.UPF
     MD5 check sum: 414e6e825ae75add557e798061b49a04
     Pseudo is Projector augmented-wave + core cor, Zval =  4.0
     Generated using "atomic" code by A. Dal Corso (espresso distribution)
     Shape of augmentation charge: BESSEL
     Using radial grid of 1073 points,  4 beta functions with: 
                l(1) =   0
                l(2) =   0
                l(3) =   1
                l(4) =   1
     Q(r) pseudized with 0 coefficients 


     atomic species   valence    mass     pseudopotential
        C              4.00    12.01070      C( 1.00)

      4 Sym.Ops. (no inversion)


   Cartesian axes

     site n.     atom                  positions (alat units)
         1           C   tau(   1) = (   0.0000000   0.0000000   0.0500000  )
         2           C   tau(   2) = (   0.2500000   0.2500000   0.2500000  )

     number of k points=    95
                       cart. coord. in units 2pi/alat
        k(    1) = (   0.0000000   0.0000000   0.0000000), wk =   0.0039063
        k(    2) = (  -0.1250000   0.1250000  -0.1250000), wk =   0.0156250
        k(    3) = (  -0.2500000   0.2500000  -0.2500000), wk =   0.0156250
        k(    4) = (  -0.3750000   0.3750000  -0.3750000), wk =   0.0156250
        k(    5) = (   0.5000000  -0.5000000   0.5000000), wk =   0.0078125
        k(    6) = (   0.0000000   0.2500000   0.0000000), wk =   0.0156250
        k(    7) = (  -0.1250000   0.3750000  -0.1250000), wk =   0.0312500
        k(    8) = (  -0.2500000   0.5000000  -0.2500000), wk =   0.0312500
        k(    9) = (   0.6250000  -0.3750000   0.6250000), wk =   0.0312500
        k(   10) = (   0.5000000  -0.2500000   0.5000000), wk =   0.0312500
        k(   11) = (   0.3750000  -0.1250000   0.3750000), wk =   0.0312500
        k(   12) = (   0.2500000   0.0000000   0.2500000), wk =   0.0312500
        k(   13) = (   0.0000000   0.5000000   0.0000000), wk =   0.0156250
        k(   14) = (  -0.1250000   0.6250000  -0.1250000), wk =   0.0312500
        k(   15) = (   0.7500000  -0.2500000   0.7500000), wk =   0.0312500
        k(   16) = (   0.6250000  -0.1250000   0.6250000), wk =   0.0312500
        k(   17) = (   0.5000000   0.0000000   0.5000000), wk =   0.0312500
        k(   18) = (   0.0000000   0.7500000   0.0000000), wk =   0.0156250
        k(   19) = (   0.8750000  -0.1250000   0.8750000), wk =   0.0312500
        k(   20) = (   0.7500000   0.0000000   0.7500000), wk =   0.0312500
        k(   21) = (   0.0000000  -1.0000000   0.0000000), wk =   0.0078125
        k(   22) = (  -0.2500000   0.5000000   0.0000000), wk =   0.0156250
        k(   23) = (   0.6250000  -0.3750000   0.8750000), wk =   0.0312500
        k(   24) = (   0.5000000  -0.2500000   0.7500000), wk =   0.0312500
        k(   25) = (   0.7500000  -0.2500000   1.0000000), wk =   0.0156250
        k(   26) = (   0.6250000  -0.1250000   0.8750000), wk =   0.0312500
        k(   27) = (   0.5000000   0.0000000   0.7500000), wk =   0.0312500
        k(   28) = (  -0.2500000  -1.0000000   0.0000000), wk =   0.0156250
        k(   29) = (  -0.5000000  -1.0000000   0.0000000), wk =   0.0156250
        k(   30) = (   0.1250000   0.1250000  -0.1250000), wk =   0.0156250
        k(   31) = (   0.2500000   0.2500000  -0.2500000), wk =   0.0156250
        k(   32) = (   0.3750000   0.3750000  -0.3750000), wk =   0.0156250
        k(   33) = (  -0.5000000  -0.5000000   0.5000000), wk =   0.0078125
        k(   34) = (   0.0000000   0.0000000   0.2500000), wk =   0.0078125
        k(   35) = (   0.3750000   0.1250000  -0.1250000), wk =   0.0312500
        k(   36) = (   0.1250000  -0.1250000   0.3750000), wk =   0.0156250
        k(   37) = (   0.1250000   0.1250000  -0.3750000), wk =   0.0156250
        k(   38) = (   0.5000000   0.2500000  -0.2500000), wk =   0.0312500
        k(   39) = (   0.2500000  -0.2500000   0.5000000), wk =   0.0156250
        k(   40) = (   0.2500000   0.2500000  -0.5000000), wk =   0.0156250
        k(   41) = (  -0.3750000  -0.6250000   0.6250000), wk =   0.0312500
        k(   42) = (  -0.6250000   0.6250000  -0.3750000), wk =   0.0156250
        k(   43) = (  -0.6250000  -0.6250000   0.3750000), wk =   0.0156250
        k(   44) = (  -0.2500000  -0.5000000   0.5000000), wk =   0.0312500
        k(   45) = (  -0.5000000   0.5000000  -0.2500000), wk =   0.0156250
        k(   46) = (  -0.5000000  -0.5000000   0.2500000), wk =   0.0156250
        k(   47) = (  -0.1250000  -0.3750000   0.3750000), wk =   0.0312500
        k(   48) = (  -0.3750000   0.3750000  -0.1250000), wk =   0.0156250
        k(   49) = (  -0.3750000  -0.3750000   0.1250000), wk =   0.0156250
        k(   50) = (  -0.2500000   0.2500000   0.0000000), wk =   0.0078125
        k(   51) = (  -0.2500000  -0.2500000   0.0000000), wk =   0.0078125
        k(   52) = (   0.0000000   0.0000000   0.5000000), wk =   0.0078125
        k(   53) = (   0.6250000   0.1250000  -0.1250000), wk =   0.0312500
        k(   54) = (   0.1250000  -0.1250000   0.6250000), wk =   0.0156250
        k(   55) = (   0.1250000   0.1250000  -0.6250000), wk =   0.0156250
        k(   56) = (  -0.2500000  -0.7500000   0.7500000), wk =   0.0312500
        k(   57) = (  -0.7500000   0.7500000  -0.2500000), wk =   0.0156250
        k(   58) = (  -0.7500000  -0.7500000   0.2500000), wk =   0.0156250
        k(   59) = (  -0.1250000  -0.6250000   0.6250000), wk =   0.0312500
        k(   60) = (  -0.6250000   0.6250000  -0.1250000), wk =   0.0156250
        k(   61) = (  -0.6250000  -0.6250000   0.1250000), wk =   0.0156250
        k(   62) = (  -0.5000000   0.5000000   0.0000000), wk =   0.0078125
        k(   63) = (  -0.5000000  -0.5000000   0.0000000), wk =   0.0078125
        k(   64) = (   0.0000000   0.0000000   0.7500000), wk =   0.0078125
        k(   65) = (  -0.1250000  -0.8750000   0.8750000), wk =   0.0312500
        k(   66) = (  -0.8750000   0.8750000  -0.1250000), wk =   0.0156250
        k(   67) = (  -0.8750000  -0.8750000   0.1250000), wk =   0.0156250
        k(   68) = (  -0.7500000   0.7500000   0.0000000), wk =   0.0078125
        k(   69) = (  -0.7500000  -0.7500000   0.0000000), wk =   0.0078125
        k(   70) = (   0.0000000   0.0000000  -1.0000000), wk =   0.0039063
        k(   71) = (   0.5000000   0.2500000   0.0000000), wk =   0.0156250
        k(   72) = (   0.0000000  -0.5000000  -0.2500000), wk =   0.0312500
        k(   73) = (   0.2500000   0.0000000   0.5000000), wk =   0.0312500
        k(   74) = (  -0.3750000  -0.6250000   0.8750000), wk =   0.0312500
        k(   75) = (   0.8750000   0.3750000   0.6250000), wk =   0.0312500
        k(   76) = (  -0.8750000   0.3750000  -0.6250000), wk =   0.0312500
        k(   77) = (  -0.6250000   0.8750000  -0.3750000), wk =   0.0312500
        k(   78) = (  -0.6250000  -0.8750000   0.3750000), wk =   0.0312500
        k(   79) = (  -0.2500000  -0.5000000   0.7500000), wk =   0.0312500
        k(   80) = (   0.7500000   0.2500000   0.5000000), wk =   0.0156250
        k(   81) = (  -0.7500000   0.2500000  -0.5000000), wk =   0.0156250
        k(   82) = (  -0.2500000  -0.7500000   1.0000000), wk =   0.0156250
        k(   83) = (   1.0000000   0.2500000   0.7500000), wk =   0.0312500
        k(   84) = (  -0.7500000   1.0000000  -0.2500000), wk =   0.0312500
        k(   85) = (  -0.1250000  -0.6250000   0.8750000), wk =   0.0312500
        k(   86) = (   0.8750000   0.1250000   0.6250000), wk =   0.0312500
        k(   87) = (  -0.8750000   0.1250000  -0.6250000), wk =   0.0312500
        k(   88) = (  -0.6250000   0.8750000  -0.1250000), wk =   0.0312500
        k(   89) = (  -0.6250000  -0.8750000   0.1250000), wk =   0.0312500
        k(   90) = (   0.7500000   0.0000000   0.5000000), wk =   0.0312500
        k(   91) = (  -0.5000000   0.7500000   0.0000000), wk =   0.0156250
        k(   92) = (  -0.5000000  -0.7500000   0.0000000), wk =   0.0156250
        k(   93) = (   0.0000000   1.0000000  -0.2500000), wk =   0.0156250
        k(   94) = (   0.2500000   0.0000000  -1.0000000), wk =   0.0156250
        k(   95) = (   0.0000000   1.0000000  -0.5000000), wk =   0.0078125

     Dense  grid:    17153 G-vectors     FFT dimensions: (  36,  36,  36)

     Largest allocated arrays     est. size (Mb)     dimensions
        Kohn-Sham Wavefunctions         0.13 Mb     (   2180,    4)
        NL pseudopotentials             0.53 Mb     (   2180,   16)
        Each V/rho on FFT grid          0.71 Mb     (  46656)
        Each G-vector array             0.13 Mb     (  17153)
        G-vector shells                 0.00 Mb     (    217)
     Largest temporary arrays     est. size (Mb)     dimensions
        Auxiliary wavefunctions         0.53 Mb     (   2180,   16)
        Each subspace H/S matrix        0.00 Mb     (  16,  16)
        Each <psi_i|beta_j> matrix      0.00 Mb     (     16,    4)
        Arrays for rho mixing           5.70 Mb     (  46656,   8)

     Initial potential from superposition of free atoms

     starting charge    7.99993, renormalised to    8.00000
     Starting wfc are    8 atomic wfcs

     total cpu time spent up to now is        4.2 secs

     per-process dynamical memory:    10.8 Mb

     Self-consistent Calculation

     iteration #  1     ecut=   140.00 Ry     beta=0.70
     Davidson diagonalization with overlap
     ethr =  1.00E-02,  avg # of iterations =  2.8

     total cpu time spent up to now is        8.8 secs

     total energy              =     -35.55425975 Ry
     Harris-Foulkes estimate   =     -35.60461618 Ry
     estimated scf accuracy    <       0.09263575 Ry

     iteration #  2     ecut=   140.00 Ry     beta=0.70
     Davidson diagonalization with overlap
     ethr =  1.16E-03,  avg # of iterations =  2.9

     total cpu time spent up to now is       14.2 secs

     total energy              =     -35.58288387 Ry
     Harris-Foulkes estimate   =     -35.58759270 Ry
     estimated scf accuracy    <       0.00899080 Ry

     iteration #  3     ecut=   140.00 Ry     beta=0.70
     Davidson diagonalization with overlap
     ethr =  1.12E-04,  avg # of iterations =  2.6

     total cpu time spent up to now is       19.1 secs

     total energy              =     -35.58599671 Ry
     Harris-Foulkes estimate   =     -35.58648914 Ry
     estimated scf accuracy    <       0.00076451 Ry

     iteration #  4     ecut=   140.00 Ry     beta=0.70
     Davidson diagonalization with overlap
     ethr =  9.56E-06,  avg # of iterations =  3.1

     total cpu time spent up to now is       25.1 secs

     total energy              =     -35.58630014 Ry
     Harris-Foulkes estimate   =     -35.58630063 Ry
     estimated scf accuracy    <       0.00001602 Ry

     iteration #  5     ecut=   140.00 Ry     beta=0.70
     Davidson diagonalization with overlap
     ethr =  2.00E-07,  avg # of iterations =  3.1

     total cpu time spent up to now is       30.4 secs

     total energy              =     -35.58630706 Ry
     Harris-Foulkes estimate   =     -35.58631170 Ry
     estimated scf accuracy    <       0.00000664 Ry

     iteration #  6     ecut=   140.00 Ry     beta=0.70
     Davidson diagonalization with overlap
     ethr =  8.30E-08,  avg # of iterations =  2.9

     total cpu time spent up to now is       35.5 secs

     End of self-consistent calculation

          k = 0.0000 0.0000 0.0000 (  2109 PWs)   bands (ev):

    -8.2835  10.3262  13.4574  15.7093

          k =-0.1250 0.1250-0.1250 (  2133 PWs)   bands (ev):

    -7.8542   9.9707  11.2149  13.8536

          k =-0.2500 0.2500-0.2500 (  2142 PWs)   bands (ev):

    -6.5832   6.9242   9.2494  12.6801

          k =-0.3750 0.3750-0.3750 (  2147 PWs)   bands (ev):

    -4.5644   2.8177   8.6575  11.9851

          k = 0.5000-0.5000 0.5000 (  2138 PWs)   bands (ev):

    -2.7792   0.3053   8.4393  11.7562

          k = 0.0000 0.2500 0.0000 (  2137 PWs)   bands (ev):

    -7.7152   9.2381  11.5598  13.5496

          k =-0.1250 0.3750-0.1250 (  2143 PWs)   bands (ev):

    -6.7251   8.5521   8.7249  11.5606

          k =-0.2500 0.5000-0.2500 (  2150 PWs)   bands (ev):

    -4.9457   4.4415   7.9944  10.7608

          k = 0.6250-0.3750 0.6250 (  2150 PWs)   bands (ev):

    -2.7769   1.0920   7.4348  10.6077

          k = 0.5000-0.2500 0.5000 (  2149 PWs)   bands (ev):

    -3.4478   1.9794   7.2222  11.0900

          k = 0.3750-0.1250 0.3750 (  2147 PWs)   bands (ev):

    -5.6153   5.7103   7.4786  12.0180

          k = 0.2500 0.0000 0.2500 (  2131 PWs)   bands (ev):

    -7.1470   8.1236   9.8488  13.0041

          k = 0.0000 0.5000 0.0000 (  2141 PWs)   bands (ev):

    -6.0317   6.9873   9.1162  10.4063

          k =-0.1250 0.6250-0.1250 (  2143 PWs)   bands (ev):

    -4.5291   6.0260   6.6222   8.9244

          k = 0.7500-0.2500 0.7500 (  2152 PWs)   bands (ev):

    -2.4347   2.9740   5.2273   8.7392

          k = 0.6250-0.1250 0.6250 (  2161 PWs)   bands (ev):

    -1.7918   2.1136   4.4868   9.3075

          k = 0.5000 0.0000 0.5000 (  2151 PWs)   bands (ev):

    -3.8688   4.1195   5.3892  10.3917

          k = 0.0000 0.7500 0.0000 (  2152 PWs)   bands (ev):

    -3.3152   3.9821   7.4965   7.8819

          k = 0.8750-0.1250 0.8750 (  2156 PWs)   bands (ev):

    -1.4506   2.4269   5.6446   7.4453

          k = 0.7500 0.0000 0.7500 (  2149 PWs)   bands (ev):

    -0.0041   1.2550   3.8624   7.9548

          k = 0.0000-1.0000 0.0000 (  2164 PWs)   bands (ev):

     0.2149   0.2149   7.0012   7.0012

          k =-0.2500 0.5000 0.0000 (  2151 PWs)   bands (ev):

    -5.4794   7.5277   7.9434   8.2768

          k = 0.6250-0.3750 0.8750 (  2154 PWs)   bands (ev):

    -3.5218   3.8474   7.1731   7.6463

          k = 0.5000-0.2500 0.7500 (  2162 PWs)   bands (ev):

    -1.8191   1.3937   6.3768   8.1243

          k = 0.7500-0.2500 1.0000 (  2142 PWs)   bands (ev):

    -2.8461   4.6901   6.1313   6.3807

          k = 0.6250-0.1250 0.8750 (  2164 PWs)   bands (ev):

    -0.8813   2.7688   4.0784   6.6616

          k = 0.5000 0.0000 0.7500 (  2160 PWs)   bands (ev):

    -1.4251   2.6519   4.0184   7.8093

          k =-0.2500-1.0000 0.0000 (  2166 PWs)   bands (ev):

     0.3446   0.7635   5.7444   6.1058

          k =-0.5000-1.0000 0.0000 (  2180 PWs)   bands (ev):

     0.5018   1.8156   3.9759   5.4154

          k = 0.1250 0.1250-0.1250 (  2133 PWs)   bands (ev):

    -7.8580   8.9554  12.2646  14.1713

          k = 0.2500 0.2500-0.2500 (  2142 PWs)   bands (ev):

    -6.5919   5.6520  10.6676  12.7955

          k = 0.3750 0.3750-0.3750 (  2147 PWs)   bands (ev):

    -4.5283   1.8950   9.6901  11.9666

          k =-0.5000-0.5000 0.5000 (  2138 PWs)   bands (ev):

    -2.2283  -1.0266   9.3647  11.6939

          k = 0.0000 0.0000 0.2500 (  2137 PWs)   bands (ev):

    -7.7112   9.3284  12.0176  12.4711

          k = 0.3750 0.1250-0.1250 (  2143 PWs)   bands (ev):

    -6.7328   6.7641  10.0449  12.6435

          k = 0.1250-0.1250 0.3750 (  2143 PWs)   bands (ev):

    -6.7196   8.3627   8.4934  12.0217

          k = 0.1250 0.1250-0.3750 (  2143 PWs)   bands (ev):

    -6.7218   7.0601  10.5457  11.1622

          k = 0.5000 0.2500-0.2500 (  2150 PWs)   bands (ev):

    -4.9366   3.3121   9.0022  11.2587

          k = 0.2500-0.2500 0.5000 (  2150 PWs)   bands (ev):

    -4.9344   4.3077   7.9603  10.9597

          k = 0.2500 0.2500-0.5000 (  2150 PWs)   bands (ev):

    -4.9225   3.4314   9.1801  10.5465

          k =-0.3750-0.6250 0.6250 (  2150 PWs)   bands (ev):

    -2.4666  -0.0699   8.5855  10.4378

          k =-0.6250 0.6250-0.3750 (  2150 PWs)   bands (ev):

    -2.7598   1.0393   7.9239   9.9596

          k =-0.6250-0.6250 0.3750 (  2150 PWs)   bands (ev):

    -2.4604  -0.0388   8.2254  10.6762

          k =-0.2500-0.5000 0.5000 (  2149 PWs)   bands (ev):

    -3.3331   1.0257   8.5488  10.5520

          k =-0.5000 0.5000-0.2500 (  2149 PWs)   bands (ev):

    -3.4602   2.0325   8.3776   9.4150

          k =-0.5000-0.5000 0.2500 (  2149 PWs)   bands (ev):

    -3.3372   0.9926   7.8951  11.5058

          k =-0.1250-0.3750 0.3750 (  2147 PWs)   bands (ev):

    -5.6150   4.6487   8.9213  11.5425

          k =-0.3750 0.3750-0.1250 (  2147 PWs)   bands (ev):

    -5.6184   5.8554   9.1535   9.5018

          k =-0.3750-0.3750 0.1250 (  2147 PWs)   bands (ev):

    -5.6272   4.4430   8.3994  12.9057

          k =-0.2500 0.2500 0.0000 (  2131 PWs)   bands (ev):

    -7.1447   9.7592   9.8701  10.6511

          k =-0.2500-0.2500 0.0000 (  2131 PWs)   bands (ev):

    -7.1572   7.2862  10.1753  14.4862

          k = 0.0000 0.0000 0.5000 (  2141 PWs)   bands (ev):

    -6.0145   7.5332   8.7412   9.7150

          k = 0.6250 0.1250-0.1250 (  2143 PWs)   bands (ev):

    -4.5238   4.5363   7.9903   9.3407

          k = 0.1250-0.1250 0.6250 (  2143 PWs)   bands (ev):

    -4.5018   5.7681   6.9195   8.6137

          k = 0.1250 0.1250-0.6250 (  2143 PWs)   bands (ev):

    -4.4972   5.1793   7.1837   8.9572

          k =-0.2500-0.7500 0.7500 (  2152 PWs)   bands (ev):

    -2.2806   1.6211   6.7566   8.5550

          k =-0.7500 0.7500-0.2500 (  2152 PWs)   bands (ev):

    -2.3900   2.6692   6.8750   7.0318

          k =-0.7500-0.7500 0.2500 (  2152 PWs)   bands (ev):

    -2.2637   1.8966   5.7915   9.0052

          k =-0.1250-0.6250 0.6250 (  2161 PWs)   bands (ev):

    -1.5161   0.8877   5.6819   9.0769

          k =-0.6250 0.6250-0.1250 (  2161 PWs)   bands (ev):

    -1.8429   2.1684   5.8844   7.4039

          k =-0.6250-0.6250 0.1250 (  2161 PWs)   bands (ev):

    -1.4467   0.8159   4.9942   9.8460

          k =-0.5000 0.5000 0.0000 (  2151 PWs)   bands (ev):

    -3.9006   5.4646   5.4992   8.3173

          k =-0.5000-0.5000 0.0000 (  2151 PWs)   bands (ev):

    -3.8618   3.2936   5.6202  11.3346

          k = 0.0000 0.0000 0.7500 (  2152 PWs)   bands (ev):

    -3.2738   4.6692   6.1741   7.9801

          k =-0.1250-0.8750 0.8750 (  2156 PWs)   bands (ev):

    -1.3614   1.9287   6.1820   7.3970

          k =-0.8750 0.8750-0.1250 (  2156 PWs)   bands (ev):

    -1.3953   2.6487   6.0084   6.3983

          k =-0.8750-0.8750 0.1250 (  2156 PWs)   bands (ev):

    -1.3475   2.6524   4.6546   7.8094

          k =-0.7500 0.7500 0.0000 (  2149 PWs)   bands (ev):

    -0.3737   2.1912   4.3210   6.4687

          k =-0.7500-0.7500 0.0000 (  2149 PWs)   bands (ev):

     0.6901   0.7811   3.0182   8.4670

          k = 0.0000 0.0000-1.0000 (  2164 PWs)   bands (ev):

    -0.1960   1.0616   5.6870   7.3900

          k = 0.5000 0.2500 0.0000 (  2151 PWs)   bands (ev):

    -5.4872   5.1501   7.8376  11.7856

          k = 0.0000-0.5000-0.2500 (  2151 PWs)   bands (ev):

    -5.4799   5.9453   7.5789  10.8172

          k = 0.2500 0.0000 0.5000 (  2151 PWs)   bands (ev):

    -5.4667   6.1886   7.3494  10.5059

          k =-0.3750-0.6250 0.8750 (  2154 PWs)   bands (ev):

    -3.4576   2.5118   6.5378  10.2281

          k = 0.8750 0.3750 0.6250 (  2154 PWs)   bands (ev):

    -3.4638   2.6248   7.3145   9.1208

          k =-0.8750 0.3750-0.6250 (  2154 PWs)   bands (ev):

    -3.5080   3.7568   5.5706   9.8087

          k =-0.6250 0.8750-0.3750 (  2154 PWs)   bands (ev):

    -3.4876   3.5883   6.0526   9.2329

          k =-0.6250-0.8750 0.3750 (  2154 PWs)   bands (ev):

    -3.4471   2.7746   6.7338   9.3846

          k =-0.2500-0.5000 0.7500 (  2162 PWs)   bands (ev):

    -1.2269  -0.0596   6.4236   9.2506

          k = 0.7500 0.2500 0.5000 (  2162 PWs)   bands (ev):

    -1.2447  -0.0963   7.7498   7.9482

          k =-0.7500 0.2500-0.5000 (  2162 PWs)   bands (ev):

    -1.8246   1.4423   5.4058   9.3946

          k =-0.2500-0.7500 1.0000 (  2142 PWs)   bands (ev):

    -2.7819   3.0760   6.2550   8.1903

          k = 1.0000 0.2500 0.7500 (  2142 PWs)   bands (ev):

    -2.8140   3.6320   6.1503   7.6371

          k =-0.7500 1.0000-0.2500 (  2142 PWs)   bands (ev):

    -2.7772   4.2105   5.3517   7.5056

          k =-0.1250-0.6250 0.8750 (  2164 PWs)   bands (ev):

    -0.4183   1.1327   4.8322   7.2581

          k = 0.8750 0.1250 0.6250 (  2164 PWs)   bands (ev):

    -0.5125   1.2004   5.4986   6.6066

          k =-0.8750 0.1250-0.6250 (  2164 PWs)   bands (ev):

    -0.8295   2.5270   3.7928   7.3123

          k =-0.6250 0.8750-0.1250 (  2164 PWs)   bands (ev):

    -0.8273   2.4768   5.0646   5.7644

          k =-0.6250-0.8750 0.1250 (  2164 PWs)   bands (ev):

    -0.4995   1.6221   4.0662   7.4867

          k = 0.7500 0.0000 0.5000 (  2160 PWs)   bands (ev):

    -1.4445   2.4484   4.2588   7.9126

          k =-0.5000 0.7500 0.0000 (  2160 PWs)   bands (ev):

    -1.5867   3.7035   4.4098   6.2459

          k =-0.5000-0.7500 0.0000 (  2160 PWs)   bands (ev):

    -1.2701   1.8144   4.1369   8.5491

          k = 0.0000 1.0000-0.2500 (  2166 PWs)   bands (ev):

     0.5297   0.5297   5.9688   5.9688

          k = 0.2500 0.0000-1.0000 (  2166 PWs)   bands (ev):

     0.0794   1.4965   4.6772   6.4316

          k = 0.0000 1.0000-0.5000 (  2180 PWs)   bands (ev):

     0.9386   0.9386   4.9822   4.9822

!    total energy              =     -35.58630858 Ry
     Harris-Foulkes estimate   =     -35.58630855 Ry
     estimated scf accuracy    <       0.00000020 Ry

     total all-electron energy =      -151.145305 Ry

     The total energy is the sum of the following terms:

     one-electron contribution =       8.35528865 Ry
     hartree contribution      =       1.95081122 Ry
     xc contribution           =      -8.37857544 Ry
     ewald contribution        =     -25.44104603 Ry
     one-center paw contrib.   =     -12.07278698 Ry

     convergence has been achieved in   6 iterations

     Forces acting on atoms (Ry/au):

     atom    1 type  1   force =     0.00000000    0.00000000   -0.23361774
     atom    2 type  1   force =     0.00000000    0.00000000    0.23361774

     Total force =     0.330385     Total SCF correction =     0.000199

     Writing output data file diamond.save

     init_run     :      3.35s CPU      3.98s WALL (       1 calls)
     electrons    :     33.27s CPU     31.34s WALL (       1 calls)
     forces       :      0.65s CPU      0.60s WALL (       1 calls)

     Called by init_run:
     wfcinit      :      2.56s CPU      3.14s WALL (       1 calls)
     potinit      :      0.05s CPU      0.05s WALL (       1 calls)

     Called by electrons:
     c_bands      :     28.36s CPU     26.44s WALL (       6 calls)
     sum_band     :      4.34s CPU      4.24s WALL (       6 calls)
     v_of_rho     :      0.08s CPU      0.08s WALL (       7 calls)
     newd         :      0.22s CPU      0.23s WALL (       7 calls)
     mix_rho      :      0.10s CPU      0.10s WALL (       6 calls)

     Called by c_bands:
     init_us_2    :      1.54s CPU      1.72s WALL (    1330 calls)
     cegterg      :     26.62s CPU     23.68s WALL (     570 calls)

     Called by *egterg:
     h_psi        :     21.99s CPU     21.06s WALL (    2322 calls)
     s_psi        :      2.02s CPU      1.12s WALL (    2322 calls)
     g_psi        :      0.12s CPU      0.17s WALL (    1657 calls)
     cdiaghg      :      0.48s CPU      0.45s WALL (    2227 calls)

     Called by h_psi:
     add_vuspsi   :      1.90s CPU      1.17s WALL (    2322 calls)

     General routines
     calbec       :      2.78s CPU      1.74s WALL (    2987 calls)
     fft          :      0.07s CPU      0.07s WALL (      45 calls)
     fftw         :     17.73s CPU     18.23s WALL (   17618 calls)
     davcio       :      0.19s CPU      1.77s WALL (    1900 calls)


     PAW routines
     PAW_pot      :      0.19s CPU      0.20s WALL (       7 calls)
     PAW_ddot     :      0.08s CPU      0.07s WALL (      36 calls)
     PAW_symme    :      0.00s CPU      0.00s WALL (      13 calls)

     PWSCF        :    37.77s CPU        36.63s WALL


   This run was terminated on:  21:44:30  26Mar2012            

=------------------------------------------------------------------------------=
   JOB DONE.
=------------------------------------------------------------------------------=
