
     Program PWSCF v.4.3.2      starts on 26Mar2012 at 21:48:11 

     This program is part of the open-source Quantum ESPRESSO suite
     for quantum simulation of materials; please cite
         "P. Giannozzi et al., J. Phys.:Condens. Matter 21 395502 (2009);
          URL http://www.quantum-espresso.org", 
     in publications or presentations arising from this work. More details at
     http://www.quantum-espresso.org/wiki/index.php/Citing_Quantum-ESPRESSO

     Current dimensions of program PWSCF are:
     Max number of different atomic species (ntypx) = 10
     Max number of k-points (npk) =  40000
     Max angular momentum in pseudopotentials (lmaxx) =  3
     Waiting for input...
     Reading input from stdin

     G-vector sticks info
     --------------------
     sticks:   dense  smooth     PW     G-vecs:    dense   smooth      PW
     Sum         889     889    265                17573    17573    2891



     bravais-lattice index     =            2
     lattice parameter (alat)  =       6.8100  a.u.
     unit-cell volume          =      78.9553 (a.u.)^3
     number of atoms/cell      =            2
     number of atomic types    =            1
     number of electrons       =         8.00
     number of Kohn-Sham states=            4
     kinetic-energy cutoff     =     140.0000  Ry
     charge density cutoff     =     560.0000  Ry
     convergence threshold     =      1.0E-06
     mixing beta               =       0.7000
     number of iterations used =            8  plain     mixing
     Exchange-correlation      =  SLA  PZ   NOGX NOGC ( 1 1 0 0 0)
     EXX-fraction              =        0.00

     celldm(1)=   6.810000  celldm(2)=   0.000000  celldm(3)=   0.000000
     celldm(4)=   0.000000  celldm(5)=   0.000000  celldm(6)=   0.000000

     crystal axes: (cart. coord. in units of alat)
               a(1) = (  -0.500000   0.000000   0.500000 )  
               a(2) = (   0.000000   0.500000   0.500000 )  
               a(3) = (  -0.500000   0.500000   0.000000 )  

     reciprocal axes: (cart. coord. in units 2 pi/alat)
               b(1) = ( -1.000000 -1.000000  1.000000 )  
               b(2) = (  1.000000  1.000000  1.000000 )  
               b(3) = ( -1.000000  1.000000 -1.000000 )  


     PseudoPot. # 1 for  C read from file:
     /home/mullspace/Documents/espresso-4.3.2/pseudo/C.pz-kjpaw.UPF
     MD5 check sum: 414e6e825ae75add557e798061b49a04
     Pseudo is Projector augmented-wave + core cor, Zval =  4.0
     Generated using "atomic" code by A. Dal Corso (espresso distribution)
     Shape of augmentation charge: BESSEL
     Using radial grid of 1073 points,  4 beta functions with: 
                l(1) =   0
                l(2) =   0
                l(3) =   1
                l(4) =   1
     Q(r) pseudized with 0 coefficients 


     atomic species   valence    mass     pseudopotential
        C              4.00    12.01070      C( 1.00)

      8 Sym.Ops. (with inversion)


   Cartesian axes

     site n.     atom                  positions (alat units)
         1           C   tau(   1) = (   0.0000000   0.0000000   0.0500000  )
         2           C   tau(   2) = (   0.2500000   0.2500000   0.2500000  )

     number of k points=    95
                       cart. coord. in units 2pi/alat
        k(    1) = (   0.0000000   0.0000000   0.0000000), wk =   0.0039063
        k(    2) = (  -0.1250000   0.1250000  -0.1250000), wk =   0.0156250
        k(    3) = (  -0.2500000   0.2500000  -0.2500000), wk =   0.0156250
        k(    4) = (  -0.3750000   0.3750000  -0.3750000), wk =   0.0156250
        k(    5) = (   0.5000000  -0.5000000   0.5000000), wk =   0.0078125
        k(    6) = (   0.0000000   0.2500000   0.0000000), wk =   0.0156250
        k(    7) = (  -0.1250000   0.3750000  -0.1250000), wk =   0.0312500
        k(    8) = (  -0.2500000   0.5000000  -0.2500000), wk =   0.0312500
        k(    9) = (   0.6250000  -0.3750000   0.6250000), wk =   0.0312500
        k(   10) = (   0.5000000  -0.2500000   0.5000000), wk =   0.0312500
        k(   11) = (   0.3750000  -0.1250000   0.3750000), wk =   0.0312500
        k(   12) = (   0.2500000   0.0000000   0.2500000), wk =   0.0312500
        k(   13) = (   0.0000000   0.5000000   0.0000000), wk =   0.0156250
        k(   14) = (  -0.1250000   0.6250000  -0.1250000), wk =   0.0312500
        k(   15) = (   0.7500000  -0.2500000   0.7500000), wk =   0.0312500
        k(   16) = (   0.6250000  -0.1250000   0.6250000), wk =   0.0312500
        k(   17) = (   0.5000000   0.0000000   0.5000000), wk =   0.0312500
        k(   18) = (   0.0000000   0.7500000   0.0000000), wk =   0.0156250
        k(   19) = (   0.8750000  -0.1250000   0.8750000), wk =   0.0312500
        k(   20) = (   0.7500000   0.0000000   0.7500000), wk =   0.0312500
        k(   21) = (   0.0000000  -1.0000000   0.0000000), wk =   0.0078125
        k(   22) = (  -0.2500000   0.5000000   0.0000000), wk =   0.0156250
        k(   23) = (   0.6250000  -0.3750000   0.8750000), wk =   0.0312500
        k(   24) = (   0.5000000  -0.2500000   0.7500000), wk =   0.0312500
        k(   25) = (   0.7500000  -0.2500000   1.0000000), wk =   0.0156250
        k(   26) = (   0.6250000  -0.1250000   0.8750000), wk =   0.0312500
        k(   27) = (   0.5000000   0.0000000   0.7500000), wk =   0.0312500
        k(   28) = (  -0.2500000  -1.0000000   0.0000000), wk =   0.0156250
        k(   29) = (  -0.5000000  -1.0000000   0.0000000), wk =   0.0156250
        k(   30) = (  -0.1250000  -0.1250000  -0.1250000), wk =   0.0156250
        k(   31) = (  -0.2500000  -0.2500000  -0.2500000), wk =   0.0156250
        k(   32) = (  -0.3750000  -0.3750000  -0.3750000), wk =   0.0156250
        k(   33) = (   0.5000000   0.5000000   0.5000000), wk =   0.0078125
        k(   34) = (   0.0000000   0.0000000   0.2500000), wk =   0.0078125
        k(   35) = (  -0.1250000  -0.3750000  -0.1250000), wk =   0.0312500
        k(   36) = (   0.1250000  -0.1250000   0.3750000), wk =   0.0156250
        k(   37) = (   0.1250000   0.1250000  -0.3750000), wk =   0.0156250
        k(   38) = (  -0.2500000  -0.5000000  -0.2500000), wk =   0.0312500
        k(   39) = (   0.2500000  -0.2500000   0.5000000), wk =   0.0156250
        k(   40) = (   0.2500000   0.2500000  -0.5000000), wk =   0.0156250
        k(   41) = (   0.6250000   0.3750000   0.6250000), wk =   0.0312500
        k(   42) = (  -0.6250000   0.6250000  -0.3750000), wk =   0.0156250
        k(   43) = (  -0.6250000  -0.6250000   0.3750000), wk =   0.0156250
        k(   44) = (   0.5000000   0.2500000   0.5000000), wk =   0.0312500
        k(   45) = (  -0.5000000   0.5000000  -0.2500000), wk =   0.0156250
        k(   46) = (  -0.5000000  -0.5000000   0.2500000), wk =   0.0156250
        k(   47) = (   0.3750000   0.1250000   0.3750000), wk =   0.0312500
        k(   48) = (  -0.3750000   0.3750000  -0.1250000), wk =   0.0156250
        k(   49) = (  -0.3750000  -0.3750000   0.1250000), wk =   0.0156250
        k(   50) = (  -0.2500000   0.2500000   0.0000000), wk =   0.0078125
        k(   51) = (  -0.2500000  -0.2500000   0.0000000), wk =   0.0078125
        k(   52) = (   0.0000000   0.0000000   0.5000000), wk =   0.0078125
        k(   53) = (  -0.1250000  -0.6250000  -0.1250000), wk =   0.0312500
        k(   54) = (   0.1250000  -0.1250000   0.6250000), wk =   0.0156250
        k(   55) = (   0.1250000   0.1250000  -0.6250000), wk =   0.0156250
        k(   56) = (   0.7500000   0.2500000   0.7500000), wk =   0.0312500
        k(   57) = (  -0.7500000   0.7500000  -0.2500000), wk =   0.0156250
        k(   58) = (  -0.7500000  -0.7500000   0.2500000), wk =   0.0156250
        k(   59) = (   0.6250000   0.1250000   0.6250000), wk =   0.0312500
        k(   60) = (  -0.6250000   0.6250000  -0.1250000), wk =   0.0156250
        k(   61) = (  -0.6250000  -0.6250000   0.1250000), wk =   0.0156250
        k(   62) = (  -0.5000000   0.5000000   0.0000000), wk =   0.0078125
        k(   63) = (  -0.5000000  -0.5000000   0.0000000), wk =   0.0078125
        k(   64) = (   0.0000000   0.0000000   0.7500000), wk =   0.0078125
        k(   65) = (   0.8750000   0.1250000   0.8750000), wk =   0.0312500
        k(   66) = (  -0.8750000   0.8750000  -0.1250000), wk =   0.0156250
        k(   67) = (  -0.8750000  -0.8750000   0.1250000), wk =   0.0156250
        k(   68) = (  -0.7500000   0.7500000   0.0000000), wk =   0.0078125
        k(   69) = (  -0.7500000  -0.7500000   0.0000000), wk =   0.0078125
        k(   70) = (   0.0000000   0.0000000  -1.0000000), wk =   0.0039063
        k(   71) = (   0.0000000  -0.5000000  -0.2500000), wk =   0.0312500
        k(   72) = (   0.2500000   0.0000000   0.5000000), wk =   0.0312500
        k(   73) = (   0.2500000   0.5000000   0.0000000), wk =   0.0156250
        k(   74) = (   0.8750000   0.3750000   0.6250000), wk =   0.0312500
        k(   75) = (  -0.8750000   0.3750000  -0.6250000), wk =   0.0312500
        k(   76) = (  -0.6250000   0.8750000  -0.3750000), wk =   0.0312500
        k(   77) = (  -0.6250000  -0.8750000   0.3750000), wk =   0.0312500
        k(   78) = (  -0.6250000  -0.3750000  -0.8750000), wk =   0.0312500
        k(   79) = (   0.7500000   0.2500000   0.5000000), wk =   0.0156250
        k(   80) = (  -0.7500000   0.2500000  -0.5000000), wk =   0.0156250
        k(   81) = (  -0.5000000  -0.7500000   0.2500000), wk =   0.0312500
        k(   82) = (   1.0000000   0.2500000   0.7500000), wk =   0.0312500
        k(   83) = (  -0.7500000   1.0000000  -0.2500000), wk =   0.0312500
        k(   84) = (  -0.7500000  -0.2500000  -1.0000000), wk =   0.0156250
        k(   85) = (   0.8750000   0.1250000   0.6250000), wk =   0.0312500
        k(   86) = (  -0.8750000   0.1250000  -0.6250000), wk =   0.0312500
        k(   87) = (  -0.6250000   0.8750000  -0.1250000), wk =   0.0312500
        k(   88) = (  -0.6250000  -0.8750000   0.1250000), wk =   0.0312500
        k(   89) = (  -0.6250000  -0.1250000  -0.8750000), wk =   0.0312500
        k(   90) = (   0.7500000   0.0000000   0.5000000), wk =   0.0312500
        k(   91) = (  -0.5000000   0.7500000   0.0000000), wk =   0.0156250
        k(   92) = (  -0.5000000  -0.7500000   0.0000000), wk =   0.0156250
        k(   93) = (   0.0000000   1.0000000  -0.2500000), wk =   0.0156250
        k(   94) = (   0.2500000   0.0000000  -1.0000000), wk =   0.0156250
        k(   95) = (   0.0000000   1.0000000  -0.5000000), wk =   0.0078125

     Dense  grid:    17573 G-vectors     FFT dimensions: (  40,  40,  40)

     Largest allocated arrays     est. size (Mb)     dimensions
        Kohn-Sham Wavefunctions         0.14 Mb     (   2229,    4)
        NL pseudopotentials             0.54 Mb     (   2229,   16)
        Each V/rho on FFT grid          0.98 Mb     (  64000)
        Each G-vector array             0.13 Mb     (  17573)
        G-vector shells                 0.00 Mb     (    221)
     Largest temporary arrays     est. size (Mb)     dimensions
        Auxiliary wavefunctions         0.54 Mb     (   2229,   16)
        Each subspace H/S matrix        0.00 Mb     (  16,  16)
        Each <psi_i|beta_j> matrix      0.00 Mb     (     16,    4)
        Arrays for rho mixing           7.81 Mb     (  64000,   8)

     Initial potential from superposition of free atoms

     starting charge    7.99993, renormalised to    8.00000
     Starting wfc are    8 atomic wfcs

     total cpu time spent up to now is        4.4 secs

     per-process dynamical memory:    12.4 Mb

     Self-consistent Calculation

     iteration #  1     ecut=   140.00 Ry     beta=0.70
     Davidson diagonalization with overlap
     ethr =  1.00E-02,  avg # of iterations =  2.7

     total cpu time spent up to now is       10.1 secs

     total energy              =     -35.55226136 Ry
     Harris-Foulkes estimate   =     -35.59644591 Ry
     estimated scf accuracy    <       0.08266510 Ry

     iteration #  2     ecut=   140.00 Ry     beta=0.70
     Davidson diagonalization with overlap
     ethr =  1.03E-03,  avg # of iterations =  2.9

     total cpu time spent up to now is       17.0 secs

     total energy              =     -35.58189438 Ry
     Harris-Foulkes estimate   =     -35.58698891 Ry
     estimated scf accuracy    <       0.00965205 Ry

     iteration #  3     ecut=   140.00 Ry     beta=0.70
     Davidson diagonalization with overlap
     ethr =  1.21E-04,  avg # of iterations =  2.7

     total cpu time spent up to now is       23.8 secs

     total energy              =     -35.58474995 Ry
     Harris-Foulkes estimate   =     -35.58540570 Ry
     estimated scf accuracy    <       0.00103058 Ry

     iteration #  4     ecut=   140.00 Ry     beta=0.70
     Davidson diagonalization with overlap
     ethr =  1.29E-05,  avg # of iterations =  3.0

     total cpu time spent up to now is       30.9 secs

     total energy              =     -35.58507821 Ry
     Harris-Foulkes estimate   =     -35.58507844 Ry
     estimated scf accuracy    <       0.00001666 Ry

     iteration #  5     ecut=   140.00 Ry     beta=0.70
     Davidson diagonalization with overlap
     ethr =  2.08E-07,  avg # of iterations =  3.7

     total cpu time spent up to now is       38.4 secs

     total energy              =     -35.58509402 Ry
     Harris-Foulkes estimate   =     -35.58510333 Ry
     estimated scf accuracy    <       0.00001417 Ry

     iteration #  6     ecut=   140.00 Ry     beta=0.70
     Davidson diagonalization with overlap
     ethr =  1.77E-07,  avg # of iterations =  1.8

     total cpu time spent up to now is       43.3 secs

     End of self-consistent calculation

          k = 0.0000 0.0000 0.0000 (  2229 PWs)   bands (ev):

    -8.4083   9.8941  12.9782  15.1944

          k =-0.1250 0.1250-0.1250 (  2187 PWs)   bands (ev):

    -7.9873   9.5490  10.7855  13.3820

          k =-0.2500 0.2500-0.2500 (  2196 PWs)   bands (ev):

    -6.7419   6.5778   8.8469  12.2347

          k =-0.3750 0.3750-0.3750 (  2211 PWs)   bands (ev):

    -4.7718   2.5579   8.2695  11.5541

          k = 0.5000-0.5000 0.5000 (  2186 PWs)   bands (ev):

    -3.0634   0.1355   8.0565  11.3296

          k = 0.0000 0.2500 0.0000 (  2189 PWs)   bands (ev):

    -7.8503   8.8214  11.1334  13.0753

          k =-0.1250 0.3750-0.1250 (  2204 PWs)   bands (ev):

    -6.8801   8.1715   8.3296  11.1299

          k =-0.2500 0.5000-0.2500 (  2215 PWs)   bands (ev):

    -5.1406   4.1471   7.6081  10.3531

          k = 0.6250-0.3750 0.6250 (  2208 PWs)   bands (ev):

    -3.0460   0.8921   7.0606  10.2065

          k = 0.5000-0.2500 0.5000 (  2213 PWs)   bands (ev):

    -3.6857   1.7432   6.8551  10.6775

          k = 0.3750-0.1250 0.3750 (  2199 PWs)   bands (ev):

    -5.7931   5.3824   7.1105  11.5824

          k = 0.2500 0.0000 0.2500 (  2201 PWs)   bands (ev):

    -7.2928   7.7346   9.4463  12.5466

          k = 0.0000 0.5000 0.0000 (  2221 PWs)   bands (ev):

    -6.1980   6.5940   8.7491   9.9942

          k =-0.1250 0.6250-0.1250 (  2208 PWs)   bands (ev):

    -4.7281   5.6389   6.3047   8.5583

          k = 0.7500-0.2500 0.7500 (  2210 PWs)   bands (ev):

    -2.6924   2.7093   4.8909   8.3831

          k = 0.6250-0.1250 0.6250 (  2220 PWs)   bands (ev):

    -2.0752   1.8769   4.1711   8.9380

          k = 0.5000 0.0000 0.5000 (  2209 PWs)   bands (ev):

    -4.0815   3.7859   5.0884   9.9944

          k = 0.0000 0.7500 0.0000 (  2209 PWs)   bands (ev):

    -3.5339   3.6186   7.1677   7.5452

          k = 0.8750-0.1250 0.8750 (  2205 PWs)   bands (ev):

    -1.7163   2.0979   5.3586   7.1200

          k = 0.7500 0.0000 0.7500 (  2219 PWs)   bands (ev):

    -0.3269   0.9571   3.6354   7.6172

          k = 0.0000-1.0000 0.0000 (  2200 PWs)   bands (ev):

    -0.0756  -0.0756   6.6860   6.6860

          k =-0.2500 0.5000 0.0000 (  2202 PWs)   bands (ev):

    -5.6612   7.1844   7.5664   7.8896

          k = 0.6250-0.3750 0.8750 (  2207 PWs)   bands (ev):

    -3.7528   3.5687   6.7978   7.3060

          k = 0.5000-0.2500 0.7500 (  2216 PWs)   bands (ev):

    -2.1192   1.1929   6.0280   7.7710

          k = 0.7500-0.2500 1.0000 (  2203 PWs)   bands (ev):

    -3.0861   4.3240   5.8276   6.0756

          k = 0.6250-0.1250 0.8750 (  2218 PWs)   bands (ev):

    -1.1873   2.4667   3.8199   6.3509

          k = 0.5000 0.0000 0.7500 (  2215 PWs)   bands (ev):

    -1.7017   2.3345   3.7591   7.4762

          k =-0.2500-1.0000 0.0000 (  2214 PWs)   bands (ev):

     0.0266   0.4732   5.4528   5.8230

          k =-0.5000-1.0000 0.0000 (  2208 PWs)   bands (ev):

     0.1537   1.5001   3.7342   5.1622

          k =-0.1250-0.1250-0.1250 (  2187 PWs)   bands (ev):

    -7.9901   8.5468  11.8143  13.6963

          k =-0.2500-0.2500-0.2500 (  2196 PWs)   bands (ev):

    -6.7462   5.3006  10.2517  12.3499

          k =-0.3750-0.3750-0.3750 (  2211 PWs)   bands (ev):

    -4.7208   1.6116   9.2932  11.5375

          k = 0.5000 0.5000 0.5000 (  2186 PWs)   bands (ev):

    -2.4949  -1.2251   8.9738  11.2699

          k = 0.0000 0.0000 0.2500 (  2189 PWs)   bands (ev):

    -7.8465   8.9274  11.5408  12.0378

          k =-0.1250-0.3750-0.1250 (  2204 PWs)   bands (ev):

    -6.8847   6.3831   9.6546  12.1892

          k = 0.1250-0.1250 0.3750 (  2204 PWs)   bands (ev):

    -6.8740   7.9781   8.1151  11.5711

          k = 0.1250 0.1250-0.3750 (  2204 PWs)   bands (ev):

    -6.8751   6.6968  10.0986  10.7580

          k =-0.2500-0.5000-0.2500 (  2215 PWs)   bands (ev):

    -5.1206   2.9939   8.6278  10.8360

          k = 0.2500-0.2500 0.5000 (  2215 PWs)   bands (ev):

    -5.1282   4.0073   7.5944  10.5331

          k = 0.2500 0.2500-0.5000 (  2215 PWs)   bands (ev):

    -5.1093   3.1261   8.7701  10.1545

          k = 0.6250 0.3750 0.6250 (  2208 PWs)   bands (ev):

    -2.7069  -0.3127   8.2116  10.0371

          k =-0.6250 0.6250-0.3750 (  2208 PWs)   bands (ev):

    -3.0293   0.8373   7.5569   9.5576

          k =-0.6250-0.6250 0.3750 (  2208 PWs)   bands (ev):

    -2.7046  -0.2741   7.8436  10.2793

          k = 0.5000 0.2500 0.5000 (  2213 PWs)   bands (ev):

    -3.5527   0.7608   8.1720  10.1506

          k =-0.5000 0.5000-0.2500 (  2213 PWs)   bands (ev):

    -3.7010   1.7991   7.9973   9.0271

          k =-0.5000-0.5000 0.2500 (  2213 PWs)   bands (ev):

    -3.5513   0.7190   7.5307  11.0884

          k = 0.3750 0.1250 0.3750 (  2199 PWs)   bands (ev):

    -5.7886   4.3172   8.5378  11.1179

          k =-0.3750 0.3750-0.1250 (  2199 PWs)   bands (ev):

    -5.7988   5.5343   8.7518   9.1129

          k =-0.3750-0.3750 0.1250 (  2199 PWs)   bands (ev):

    -5.7971   4.0965   8.0399  12.4551

          k =-0.2500 0.2500 0.0000 (  2201 PWs)   bands (ev):

    -7.2922   9.3669   9.4489  10.2367

          k =-0.2500-0.2500 0.0000 (  2201 PWs)   bands (ev):

    -7.3008   6.8901   9.7875  13.9979

          k = 0.0000 0.0000 0.5000 (  2221 PWs)   bands (ev):

    -6.1817   7.1814   8.3001   9.3439

          k =-0.1250-0.6250-0.1250 (  2208 PWs)   bands (ev):

    -4.7163   4.1716   7.6489   8.9656

          k = 0.1250-0.1250 0.6250 (  2208 PWs)   bands (ev):

    -4.7005   5.4055   6.5827   8.2498

          k = 0.1250 0.1250-0.6250 (  2208 PWs)   bands (ev):

    -4.6938   4.8433   6.8013   8.6025

          k = 0.7500 0.2500 0.7500 (  2210 PWs)   bands (ev):

    -2.5167   1.3157   6.4315   8.2023

          k =-0.7500 0.7500-0.2500 (  2210 PWs)   bands (ev):

    -2.6492   2.3975   6.5378   6.6976

          k =-0.7500-0.7500 0.2500 (  2210 PWs)   bands (ev):

    -2.5076   1.6145   5.4508   8.6486

          k = 0.6250 0.1250 0.6250 (  2220 PWs)   bands (ev):

    -1.7847   0.6227   5.3725   8.7114

          k =-0.6250 0.6250-0.1250 (  2220 PWs)   bands (ev):

    -2.1355   1.9398   5.5696   7.0517

          k =-0.6250-0.6250 0.1250 (  2220 PWs)   bands (ev):

    -1.6989   0.5321   4.6884   9.4696

          k =-0.5000 0.5000 0.0000 (  2209 PWs)   bands (ev):

    -4.1226   5.1667   5.1729   7.9395

          k =-0.5000-0.5000 0.0000 (  2209 PWs)   bands (ev):

    -4.0622   2.9374   5.3303  10.9230

          k = 0.0000 0.0000 0.7500 (  2209 PWs)   bands (ev):

    -3.4964   4.3043   5.8562   7.6472

          k = 0.8750 0.1250 0.8750 (  2205 PWs)   bands (ev):

    -1.6151   1.5888   5.8936   7.0733

          k =-0.8750 0.8750-0.1250 (  2205 PWs)   bands (ev):

    -1.6685   2.3319   5.6942   6.1099

          k =-0.8750-0.8750 0.1250 (  2205 PWs)   bands (ev):

    -1.6149   2.3243   4.3749   7.4799

          k =-0.7500 0.7500 0.0000 (  2219 PWs)   bands (ev):

    -0.7156   1.9206   4.0929   6.1420

          k =-0.7500-0.7500 0.0000 (  2219 PWs)   bands (ev):

     0.3580   0.4826   2.8005   8.1226

          k = 0.0000 0.0000-1.0000 (  2200 PWs)   bands (ev):

    -0.5199   0.8101   5.3810   7.0698

          k = 0.0000-0.5000-0.2500 (  2202 PWs)   bands (ev):

    -5.6575   5.5764   7.2336  10.4079

          k = 0.2500 0.0000 0.5000 (  2202 PWs)   bands (ev):

    -5.6450   5.8347   6.9914  10.0965

          k = 0.2500 0.5000 0.0000 (  2202 PWs)   bands (ev):

    -5.6600   4.7736   7.5022  11.3594

          k = 0.8750 0.3750 0.6250 (  2207 PWs)   bands (ev):

    -3.6800   2.3155   6.9756   8.7468

          k =-0.8750 0.3750-0.6250 (  2207 PWs)   bands (ev):

    -3.7336   3.4693   5.2256   9.4336

          k =-0.6250 0.8750-0.3750 (  2207 PWs)   bands (ev):

    -3.7140   3.2966   5.7188   8.8536

          k =-0.6250-0.8750 0.3750 (  2207 PWs)   bands (ev):

    -3.6657   2.4782   6.3786   9.0164

          k =-0.6250-0.3750-0.8750 (  2207 PWs)   bands (ev):

    -3.6667   2.1884   6.2102   9.8445

          k = 0.7500 0.2500 0.5000 (  2216 PWs)   bands (ev):

    -1.5302  -0.3275   7.4099   7.5901

          k =-0.7500 0.2500-0.5000 (  2216 PWs)   bands (ev):

    -2.1196   1.2410   5.0550   9.0341

          k =-0.5000-0.7500 0.2500 (  2216 PWs)   bands (ev):

    -1.5091  -0.2903   6.0777   8.8925

          k = 1.0000 0.2500 0.7500 (  2203 PWs)   bands (ev):

    -3.0456   3.2738   5.8453   7.3153

          k =-0.7500 1.0000-0.2500 (  2203 PWs)   bands (ev):

    -3.0127   3.8532   5.0501   7.1878

          k =-0.7500-0.2500-1.0000 (  2203 PWs)   bands (ev):

    -3.0042   2.7096   5.9529   7.8631

          k = 0.8750 0.1250 0.6250 (  2218 PWs)   bands (ev):

    -0.7970   0.8911   5.2212   6.2983

          k =-0.8750 0.1250-0.6250 (  2218 PWs)   bands (ev):

    -1.1262   2.1967   3.5524   7.0018

          k =-0.6250 0.8750-0.1250 (  2218 PWs)   bands (ev):

    -1.1377   2.1963   4.7703   5.4795

          k =-0.6250-0.8750 0.1250 (  2218 PWs)   bands (ev):

    -0.7918   1.3235   3.7875   7.1738

          k =-0.6250-0.1250-0.8750 (  2218 PWs)   bands (ev):

    -0.6920   0.8108   4.5539   6.9513

          k = 0.7500 0.0000 0.5000 (  2215 PWs)   bands (ev):

    -1.7170   2.1229   4.0028   7.5800

          k =-0.5000 0.7500 0.0000 (  2215 PWs)   bands (ev):

    -1.8768   3.3960   4.1563   5.9211

          k =-0.5000-0.7500 0.0000 (  2215 PWs)   bands (ev):

    -1.5196   1.4658   3.8805   8.2101

          k = 0.0000 1.0000-0.2500 (  2214 PWs)   bands (ev):

     0.2248   0.2248   5.6827   5.6827

          k = 0.2500 0.0000-1.0000 (  2214 PWs)   bands (ev):

    -0.2554   1.2256   4.3947   6.1428

          k = 0.0000 1.0000-0.5000 (  2208 PWs)   bands (ev):

     0.6100   0.6100   4.7312   4.7312

!    total energy              =     -35.58509541 Ry
     Harris-Foulkes estimate   =     -35.58509541 Ry
     estimated scf accuracy    <       0.00000001 Ry

     total all-electron energy =      -151.144092 Ry

     The total energy is the sum of the following terms:

     one-electron contribution =       8.05701810 Ry
     hartree contribution      =       1.97898463 Ry
     xc contribution           =      -8.33333600 Ry
     ewald contribution        =     -25.21689584 Ry
     one-center paw contrib.   =     -12.07086630 Ry

     convergence has been achieved in   6 iterations

     Forces acting on atoms (Ry/au):

     atom    1 type  1   force =     0.00000000    0.00000000   -0.22273268
     atom    2 type  1   force =     0.00000000    0.00000000    0.22273268

     Total force =     0.314992     Total SCF correction =     0.000041

     Writing output data file diamond.save

     init_run     :      4.21s CPU      4.13s WALL (       1 calls)
     electrons    :     40.27s CPU     38.94s WALL (       1 calls)
     forces       :      0.67s CPU      0.55s WALL (       1 calls)

     Called by init_run:
     wfcinit      :      3.40s CPU      3.28s WALL (       1 calls)
     potinit      :      0.06s CPU      0.06s WALL (       1 calls)

     Called by electrons:
     c_bands      :     34.20s CPU     32.85s WALL (       6 calls)
     sum_band     :      5.48s CPU      5.39s WALL (       6 calls)
     v_of_rho     :      0.10s CPU      0.10s WALL (       7 calls)
     newd         :      0.23s CPU      0.25s WALL (       7 calls)
     mix_rho      :      0.10s CPU      0.10s WALL (       6 calls)

     Called by c_bands:
     init_us_2    :      1.41s CPU      1.66s WALL (    1330 calls)
     cegterg      :     32.52s CPU     29.77s WALL (     570 calls)

     Called by *egterg:
     h_psi        :     28.90s CPU     27.98s WALL (    2258 calls)
     s_psi        :      1.96s CPU      1.13s WALL (    2258 calls)
     g_psi        :      0.20s CPU      0.17s WALL (    1593 calls)
     cdiaghg      :      0.43s CPU      0.44s WALL (    2163 calls)

     Called by h_psi:
     add_vuspsi   :      2.12s CPU      1.19s WALL (    2258 calls)

     General routines
     calbec       :      2.81s CPU      1.76s WALL (    2923 calls)
     fft          :      0.11s CPU      0.11s WALL (      45 calls)
     fftw         :     24.77s CPU     25.35s WALL (   17412 calls)
     davcio       :      0.24s CPU      1.48s WALL (    1900 calls)


     PAW routines
     PAW_pot      :      0.19s CPU      0.20s WALL (       7 calls)
     PAW_ddot     :      0.08s CPU      0.07s WALL (      36 calls)
     PAW_symme    :      0.00s CPU      0.00s WALL (      13 calls)

     PWSCF        :    45.63s CPU        44.27s WALL


   This run was terminated on:  21:48:55  26Mar2012            

=------------------------------------------------------------------------------=
   JOB DONE.
=------------------------------------------------------------------------------=
