
     Program PWSCF v.4.3.2      starts on 26Mar2012 at 21:54:54 

     This program is part of the open-source Quantum ESPRESSO suite
     for quantum simulation of materials; please cite
         "P. Giannozzi et al., J. Phys.:Condens. Matter 21 395502 (2009);
          URL http://www.quantum-espresso.org", 
     in publications or presentations arising from this work. More details at
     http://www.quantum-espresso.org/wiki/index.php/Citing_Quantum-ESPRESSO

     Current dimensions of program PWSCF are:
     Max number of different atomic species (ntypx) = 10
     Max number of k-points (npk) =  40000
     Max angular momentum in pseudopotentials (lmaxx) =  3
     Waiting for input...
     Reading input from stdin

     G-vector sticks info
     --------------------
     sticks:   dense  smooth     PW     G-vecs:    dense   smooth      PW
     Sum         925     925    283                18421    18421    3071



     bravais-lattice index     =            2
     lattice parameter (alat)  =       6.9000  a.u.
     unit-cell volume          =      82.1273 (a.u.)^3
     number of atoms/cell      =            2
     number of atomic types    =            1
     number of electrons       =         8.00
     number of Kohn-Sham states=            4
     kinetic-energy cutoff     =     140.0000  Ry
     charge density cutoff     =     560.0000  Ry
     convergence threshold     =      1.0E-06
     mixing beta               =       0.7000
     number of iterations used =            8  plain     mixing
     Exchange-correlation      =  SLA  PZ   NOGX NOGC ( 1 1 0 0 0)
     EXX-fraction              =        0.00

     celldm(1)=   6.900000  celldm(2)=   0.000000  celldm(3)=   0.000000
     celldm(4)=   0.000000  celldm(5)=   0.000000  celldm(6)=   0.000000

     crystal axes: (cart. coord. in units of alat)
               a(1) = (  -0.500000   0.000000   0.500000 )  
               a(2) = (   0.000000   0.500000   0.500000 )  
               a(3) = (  -0.500000   0.500000   0.000000 )  

     reciprocal axes: (cart. coord. in units 2 pi/alat)
               b(1) = ( -1.000000 -1.000000  1.000000 )  
               b(2) = (  1.000000  1.000000  1.000000 )  
               b(3) = ( -1.000000  1.000000 -1.000000 )  


     PseudoPot. # 1 for  C read from file:
     /home/mullspace/Documents/espresso-4.3.2/pseudo/C.pz-kjpaw.UPF
     MD5 check sum: 414e6e825ae75add557e798061b49a04
     Pseudo is Projector augmented-wave + core cor, Zval =  4.0
     Generated using "atomic" code by A. Dal Corso (espresso distribution)
     Shape of augmentation charge: BESSEL
     Using radial grid of 1073 points,  4 beta functions with: 
                l(1) =   0
                l(2) =   0
                l(3) =   1
                l(4) =   1
     Q(r) pseudized with 0 coefficients 


     atomic species   valence    mass     pseudopotential
        C              4.00    12.01070      C( 1.00)

      8 Sym.Ops. (with inversion)


   Cartesian axes

     site n.     atom                  positions (alat units)
         1           C   tau(   1) = (   0.0000000   0.0000000   0.0500000  )
         2           C   tau(   2) = (   0.2500000   0.2500000   0.2500000  )

     number of k points=    95
                       cart. coord. in units 2pi/alat
        k(    1) = (   0.0000000   0.0000000   0.0000000), wk =   0.0039063
        k(    2) = (  -0.1250000   0.1250000  -0.1250000), wk =   0.0156250
        k(    3) = (  -0.2500000   0.2500000  -0.2500000), wk =   0.0156250
        k(    4) = (  -0.3750000   0.3750000  -0.3750000), wk =   0.0156250
        k(    5) = (   0.5000000  -0.5000000   0.5000000), wk =   0.0078125
        k(    6) = (   0.0000000   0.2500000   0.0000000), wk =   0.0156250
        k(    7) = (  -0.1250000   0.3750000  -0.1250000), wk =   0.0312500
        k(    8) = (  -0.2500000   0.5000000  -0.2500000), wk =   0.0312500
        k(    9) = (   0.6250000  -0.3750000   0.6250000), wk =   0.0312500
        k(   10) = (   0.5000000  -0.2500000   0.5000000), wk =   0.0312500
        k(   11) = (   0.3750000  -0.1250000   0.3750000), wk =   0.0312500
        k(   12) = (   0.2500000   0.0000000   0.2500000), wk =   0.0312500
        k(   13) = (   0.0000000   0.5000000   0.0000000), wk =   0.0156250
        k(   14) = (  -0.1250000   0.6250000  -0.1250000), wk =   0.0312500
        k(   15) = (   0.7500000  -0.2500000   0.7500000), wk =   0.0312500
        k(   16) = (   0.6250000  -0.1250000   0.6250000), wk =   0.0312500
        k(   17) = (   0.5000000   0.0000000   0.5000000), wk =   0.0312500
        k(   18) = (   0.0000000   0.7500000   0.0000000), wk =   0.0156250
        k(   19) = (   0.8750000  -0.1250000   0.8750000), wk =   0.0312500
        k(   20) = (   0.7500000   0.0000000   0.7500000), wk =   0.0312500
        k(   21) = (   0.0000000  -1.0000000   0.0000000), wk =   0.0078125
        k(   22) = (  -0.2500000   0.5000000   0.0000000), wk =   0.0156250
        k(   23) = (   0.6250000  -0.3750000   0.8750000), wk =   0.0312500
        k(   24) = (   0.5000000  -0.2500000   0.7500000), wk =   0.0312500
        k(   25) = (   0.7500000  -0.2500000   1.0000000), wk =   0.0156250
        k(   26) = (   0.6250000  -0.1250000   0.8750000), wk =   0.0312500
        k(   27) = (   0.5000000   0.0000000   0.7500000), wk =   0.0312500
        k(   28) = (  -0.2500000  -1.0000000   0.0000000), wk =   0.0156250
        k(   29) = (  -0.5000000  -1.0000000   0.0000000), wk =   0.0156250
        k(   30) = (  -0.1250000  -0.1250000  -0.1250000), wk =   0.0156250
        k(   31) = (  -0.2500000  -0.2500000  -0.2500000), wk =   0.0156250
        k(   32) = (  -0.3750000  -0.3750000  -0.3750000), wk =   0.0156250
        k(   33) = (   0.5000000   0.5000000   0.5000000), wk =   0.0078125
        k(   34) = (   0.0000000   0.0000000   0.2500000), wk =   0.0078125
        k(   35) = (  -0.1250000  -0.3750000  -0.1250000), wk =   0.0312500
        k(   36) = (   0.1250000  -0.1250000   0.3750000), wk =   0.0156250
        k(   37) = (   0.1250000   0.1250000  -0.3750000), wk =   0.0156250
        k(   38) = (  -0.2500000  -0.5000000  -0.2500000), wk =   0.0312500
        k(   39) = (   0.2500000  -0.2500000   0.5000000), wk =   0.0156250
        k(   40) = (   0.2500000   0.2500000  -0.5000000), wk =   0.0156250
        k(   41) = (   0.6250000   0.3750000   0.6250000), wk =   0.0312500
        k(   42) = (  -0.6250000   0.6250000  -0.3750000), wk =   0.0156250
        k(   43) = (  -0.6250000  -0.6250000   0.3750000), wk =   0.0156250
        k(   44) = (   0.5000000   0.2500000   0.5000000), wk =   0.0312500
        k(   45) = (  -0.5000000   0.5000000  -0.2500000), wk =   0.0156250
        k(   46) = (  -0.5000000  -0.5000000   0.2500000), wk =   0.0156250
        k(   47) = (   0.3750000   0.1250000   0.3750000), wk =   0.0312500
        k(   48) = (  -0.3750000   0.3750000  -0.1250000), wk =   0.0156250
        k(   49) = (  -0.3750000  -0.3750000   0.1250000), wk =   0.0156250
        k(   50) = (  -0.2500000   0.2500000   0.0000000), wk =   0.0078125
        k(   51) = (  -0.2500000  -0.2500000   0.0000000), wk =   0.0078125
        k(   52) = (   0.0000000   0.0000000   0.5000000), wk =   0.0078125
        k(   53) = (  -0.1250000  -0.6250000  -0.1250000), wk =   0.0312500
        k(   54) = (   0.1250000  -0.1250000   0.6250000), wk =   0.0156250
        k(   55) = (   0.1250000   0.1250000  -0.6250000), wk =   0.0156250
        k(   56) = (   0.7500000   0.2500000   0.7500000), wk =   0.0312500
        k(   57) = (  -0.7500000   0.7500000  -0.2500000), wk =   0.0156250
        k(   58) = (  -0.7500000  -0.7500000   0.2500000), wk =   0.0156250
        k(   59) = (   0.6250000   0.1250000   0.6250000), wk =   0.0312500
        k(   60) = (  -0.6250000   0.6250000  -0.1250000), wk =   0.0156250
        k(   61) = (  -0.6250000  -0.6250000   0.1250000), wk =   0.0156250
        k(   62) = (  -0.5000000   0.5000000   0.0000000), wk =   0.0078125
        k(   63) = (  -0.5000000  -0.5000000   0.0000000), wk =   0.0078125
        k(   64) = (   0.0000000   0.0000000   0.7500000), wk =   0.0078125
        k(   65) = (   0.8750000   0.1250000   0.8750000), wk =   0.0312500
        k(   66) = (  -0.8750000   0.8750000  -0.1250000), wk =   0.0156250
        k(   67) = (  -0.8750000  -0.8750000   0.1250000), wk =   0.0156250
        k(   68) = (  -0.7500000   0.7500000   0.0000000), wk =   0.0078125
        k(   69) = (  -0.7500000  -0.7500000   0.0000000), wk =   0.0078125
        k(   70) = (   0.0000000   0.0000000  -1.0000000), wk =   0.0039063
        k(   71) = (   0.0000000  -0.5000000  -0.2500000), wk =   0.0312500
        k(   72) = (   0.2500000   0.0000000   0.5000000), wk =   0.0312500
        k(   73) = (   0.2500000   0.5000000   0.0000000), wk =   0.0156250
        k(   74) = (   0.8750000   0.3750000   0.6250000), wk =   0.0312500
        k(   75) = (  -0.8750000   0.3750000  -0.6250000), wk =   0.0312500
        k(   76) = (  -0.6250000   0.8750000  -0.3750000), wk =   0.0312500
        k(   77) = (  -0.6250000  -0.8750000   0.3750000), wk =   0.0312500
        k(   78) = (  -0.6250000  -0.3750000  -0.8750000), wk =   0.0312500
        k(   79) = (   0.7500000   0.2500000   0.5000000), wk =   0.0156250
        k(   80) = (  -0.7500000   0.2500000  -0.5000000), wk =   0.0156250
        k(   81) = (  -0.5000000  -0.7500000   0.2500000), wk =   0.0312500
        k(   82) = (   1.0000000   0.2500000   0.7500000), wk =   0.0312500
        k(   83) = (  -0.7500000   1.0000000  -0.2500000), wk =   0.0312500
        k(   84) = (  -0.7500000  -0.2500000  -1.0000000), wk =   0.0156250
        k(   85) = (   0.8750000   0.1250000   0.6250000), wk =   0.0312500
        k(   86) = (  -0.8750000   0.1250000  -0.6250000), wk =   0.0312500
        k(   87) = (  -0.6250000   0.8750000  -0.1250000), wk =   0.0312500
        k(   88) = (  -0.6250000  -0.8750000   0.1250000), wk =   0.0312500
        k(   89) = (  -0.6250000  -0.1250000  -0.8750000), wk =   0.0312500
        k(   90) = (   0.7500000   0.0000000   0.5000000), wk =   0.0312500
        k(   91) = (  -0.5000000   0.7500000   0.0000000), wk =   0.0156250
        k(   92) = (  -0.5000000  -0.7500000   0.0000000), wk =   0.0156250
        k(   93) = (   0.0000000   1.0000000  -0.2500000), wk =   0.0156250
        k(   94) = (   0.2500000   0.0000000  -1.0000000), wk =   0.0156250
        k(   95) = (   0.0000000   1.0000000  -0.5000000), wk =   0.0078125

     Dense  grid:    18421 G-vectors     FFT dimensions: (  40,  40,  40)

     Largest allocated arrays     est. size (Mb)     dimensions
        Kohn-Sham Wavefunctions         0.14 Mb     (   2332,    4)
        NL pseudopotentials             0.57 Mb     (   2332,   16)
        Each V/rho on FFT grid          0.98 Mb     (  64000)
        Each G-vector array             0.14 Mb     (  18421)
        G-vector shells                 0.00 Mb     (    227)
     Largest temporary arrays     est. size (Mb)     dimensions
        Auxiliary wavefunctions         0.57 Mb     (   2332,   16)
        Each subspace H/S matrix        0.00 Mb     (  16,  16)
        Each <psi_i|beta_j> matrix      0.00 Mb     (     16,    4)
        Arrays for rho mixing           7.81 Mb     (  64000,   8)

     Initial potential from superposition of free atoms

     starting charge    7.99993, renormalised to    8.00000
     Starting wfc are    8 atomic wfcs

     total cpu time spent up to now is        4.5 secs

     per-process dynamical memory:    12.5 Mb

     Self-consistent Calculation

     iteration #  1     ecut=   140.00 Ry     beta=0.70
     Davidson diagonalization with overlap
     ethr =  1.00E-02,  avg # of iterations =  2.6

     Threshold (ethr) on eigenvalues was too large:
     Diagonalizing with lowered threshold

     Davidson diagonalization with overlap
     ethr =  9.09E-04,  avg # of iterations =  2.9

     total cpu time spent up to now is       17.4 secs

     total energy              =     -35.56959114 Ry
     Harris-Foulkes estimate   =     -35.62867339 Ry
     estimated scf accuracy    <       0.11065953 Ry

     iteration #  2     ecut=   140.00 Ry     beta=0.70
     Davidson diagonalization with overlap
     ethr =  1.38E-03,  avg # of iterations =  1.0

     total cpu time spent up to now is       22.2 secs

     total energy              =     -35.57231367 Ry
     Harris-Foulkes estimate   =     -35.57482213 Ry
     estimated scf accuracy    <       0.00524068 Ry

     iteration #  3     ecut=   140.00 Ry     beta=0.70
     Davidson diagonalization with overlap
     ethr =  6.55E-05,  avg # of iterations =  3.2

     total cpu time spent up to now is       30.7 secs

     total energy              =     -35.57996857 Ry
     Harris-Foulkes estimate   =     -35.58162768 Ry
     estimated scf accuracy    <       0.00266873 Ry

     iteration #  4     ecut=   140.00 Ry     beta=0.70
     Davidson diagonalization with overlap
     ethr =  3.34E-05,  avg # of iterations =  3.1

     total cpu time spent up to now is       37.6 secs

     total energy              =     -35.58035013 Ry
     Harris-Foulkes estimate   =     -35.58059907 Ry
     estimated scf accuracy    <       0.00041765 Ry

     iteration #  5     ecut=   140.00 Ry     beta=0.70
     Davidson diagonalization with overlap
     ethr =  5.22E-06,  avg # of iterations =  2.7

     total cpu time spent up to now is       44.1 secs

     End of self-consistent calculation

          k = 0.0000 0.0000 0.0000 (  2277 PWs)   bands (ev):

    -8.5840   9.2766  12.2910  14.4543

          k =-0.1250 0.1250-0.1250 (  2298 PWs)   bands (ev):

    -8.1751   8.9462  10.1685  12.7045

          k =-0.2500 0.2500-0.2500 (  2289 PWs)   bands (ev):

    -6.9675   6.0809   8.2717  11.5953

          k =-0.3750 0.3750-0.3750 (  2295 PWs)   bands (ev):

    -5.0686   2.1873   7.7153  10.9356

          k = 0.5000-0.5000 0.5000 (  2332 PWs)   bands (ev):

    -3.4677  -0.1086   7.5096  10.7176

          k = 0.0000 0.2500 0.0000 (  2285 PWs)   bands (ev):

    -8.0411   8.2247  10.5218  12.3928

          k =-0.1250 0.3750-0.1250 (  2282 PWs)   bands (ev):

    -7.1001   7.6157   7.7729  10.5115

          k =-0.2500 0.5000-0.2500 (  2305 PWs)   bands (ev):

    -5.4189   3.7257   7.0558   9.7679

          k = 0.6250-0.3750 0.6250 (  2304 PWs)   bands (ev):

    -3.4307   0.6064   6.5258   9.6308

          k = 0.5000-0.2500 0.5000 (  2296 PWs)   bands (ev):

    -4.0267   1.4061   6.3304  10.0856

          k = 0.3750-0.1250 0.3750 (  2302 PWs)   bands (ev):

    -6.0465   4.9115   6.5847  10.9574

          k = 0.2500 0.0000 0.2500 (  2285 PWs)   bands (ev):

    -7.4992   7.1771   8.8686  11.8901

          k = 0.0000 0.5000 0.0000 (  2293 PWs)   bands (ev):

    -6.4343   6.0291   8.2228   9.4029

          k =-0.1250 0.6250-0.1250 (  2301 PWs)   bands (ev):

    -5.0123   5.0826   5.8509   8.0335

          k = 0.7500-0.2500 0.7500 (  2313 PWs)   bands (ev):

    -3.0617   2.3270   4.4132   7.8722

          k = 0.6250-0.1250 0.6250 (  2307 PWs)   bands (ev):

    -2.4809   1.5341   3.7232   8.4081

          k = 0.5000 0.0000 0.5000 (  2305 PWs)   bands (ev):

    -4.3860   3.3064   4.6595   9.4247

          k = 0.0000 0.7500 0.0000 (  2297 PWs)   bands (ev):

    -3.8467   3.0970   6.6968   7.0622

          k = 0.8750-0.1250 0.8750 (  2299 PWs)   bands (ev):

    -2.0971   1.6255   4.9498   6.6537

          k = 0.7500 0.0000 0.7500 (  2303 PWs)   bands (ev):

    -0.7879   0.5296   3.3099   7.1334

          k = 0.0000-1.0000 0.0000 (  2272 PWs)   bands (ev):

    -0.4923  -0.4923   6.2345   6.2345

          k =-0.2500 0.5000 0.0000 (  2305 PWs)   bands (ev):

    -5.9205   6.6937   7.0127   7.3467

          k = 0.6250-0.3750 0.8750 (  2301 PWs)   bands (ev):

    -4.0839   3.1694   6.2611   6.8186

          k = 0.5000-0.2500 0.7500 (  2286 PWs)   bands (ev):

    -2.5471   0.9030   5.5295   7.2650

          k = 0.7500-0.2500 1.0000 (  2297 PWs)   bands (ev):

    -3.4300   3.7981   5.3941   5.6385

          k = 0.6250-0.1250 0.8750 (  2291 PWs)   bands (ev):

    -1.6252   2.0280   3.4550   5.9063

          k = 0.5000 0.0000 0.7500 (  2298 PWs)   bands (ev):

    -2.0987   1.8782   3.3905   6.9989

          k =-0.2500-1.0000 0.0000 (  2288 PWs)   bands (ev):

    -0.4290   0.0568   5.0355   5.4180

          k =-0.5000-1.0000 0.0000 (  2268 PWs)   bands (ev):

    -0.3434   1.0482   3.3882   4.7982

          k =-0.1250-0.1250-0.1250 (  2298 PWs)   bands (ev):

    -8.1765   7.9616  11.1681  13.0131

          k =-0.2500-0.2500-0.2500 (  2289 PWs)   bands (ev):

    -6.9649   4.7965   9.6558  11.7097

          k =-0.3750-0.3750-0.3750 (  2295 PWs)   bands (ev):

    -4.9957   1.2058   8.7251  10.9212

          k = 0.5000 0.5000 0.5000 (  2332 PWs)   bands (ev):

    -2.8745  -1.5104   8.4146  10.6611

          k = 0.0000 0.0000 0.2500 (  2285 PWs)   bands (ev):

    -8.0376   8.3539  10.8559  11.4148

          k =-0.1250-0.3750-0.1250 (  2282 PWs)   bands (ev):

    -7.1000   5.8363   9.0949  11.5368

          k = 0.1250-0.1250 0.3750 (  2282 PWs)   bands (ev):

    -7.0932   7.4247   7.5743  10.9246

          k = 0.1250 0.1250-0.3750 (  2282 PWs)   bands (ev):

    -7.0925   6.1758   9.4574  10.1771

          k =-0.2500-0.5000-0.2500 (  2305 PWs)   bands (ev):

    -5.3827   2.5372   8.0917  10.2290

          k = 0.2500-0.2500 0.5000 (  2305 PWs)   bands (ev):

    -5.4051   3.5770   7.0713   9.9207

          k = 0.2500 0.2500-0.5000 (  2305 PWs)   bands (ev):

    -5.3757   2.6884   8.1832   9.5914

          k = 0.6250 0.3750 0.6250 (  2304 PWs)   bands (ev):

    -3.0516  -0.6595   7.6766   9.4616

          k =-0.6250 0.6250-0.3750 (  2304 PWs)   bands (ev):

    -3.4148   0.5487   7.0325   8.9804

          k =-0.6250-0.6250 0.3750 (  2304 PWs)   bands (ev):

    -3.0548  -0.6102   7.2976   9.7094

          k = 0.5000 0.2500 0.5000 (  2296 PWs)   bands (ev):

    -3.8671   0.3819   7.6325   9.5746

          k =-0.5000 0.5000-0.2500 (  2296 PWs)   bands (ev):

    -4.0462   1.4663   7.4539   8.4700

          k =-0.5000-0.5000 0.2500 (  2296 PWs)   bands (ev):

    -3.8574   0.3270   7.0097  10.4890

          k = 0.3750 0.1250 0.3750 (  2302 PWs)   bands (ev):

    -6.0357   3.8417   7.9881  10.5088

          k =-0.3750 0.3750-0.1250 (  2302 PWs)   bands (ev):

    -6.0560   5.0743   8.1779   8.5541

          k =-0.3750-0.3750 0.1250 (  2302 PWs)   bands (ev):

    -6.0387   3.5988   7.5255  11.8077

          k =-0.2500 0.2500 0.0000 (  2285 PWs)   bands (ev):

    -7.5013   8.8050   8.8471   9.6393

          k =-0.2500-0.2500 0.0000 (  2285 PWs)   bands (ev):

    -7.5039   6.3222   9.2313  13.2962

          k = 0.0000 0.0000 0.5000 (  2293 PWs)   bands (ev):

    -6.4195   6.6785   7.6665   8.8110

          k =-0.1250-0.6250-0.1250 (  2301 PWs)   bands (ev):

    -4.9909   3.6480   7.1600   8.4273

          k = 0.1250-0.1250 0.6250 (  2301 PWs)   bands (ev):

    -4.9845   4.8841   6.1014   7.7286

          k = 0.1250 0.1250-0.6250 (  2301 PWs)   bands (ev):

    -4.9746   4.3592   6.2563   8.0933

          k = 0.7500 0.2500 0.7500 (  2313 PWs)   bands (ev):

    -2.8549   0.8774   5.9668   7.6965

          k =-0.7500 0.7500-0.2500 (  2313 PWs)   bands (ev):

    -3.0214   2.0082   6.0562   6.2192

          k =-0.7500-0.7500 0.2500 (  2313 PWs)   bands (ev):

    -2.8575   1.2090   4.9656   8.1367

          k = 0.6250 0.1250 0.6250 (  2307 PWs)   bands (ev):

    -2.1701   0.2423   4.9309   8.1872

          k =-0.6250 0.6250-0.1250 (  2307 PWs)   bands (ev):

    -2.5543   1.6112   5.1193   6.5484

          k =-0.6250-0.6250 0.1250 (  2307 PWs)   bands (ev):

    -2.0606   0.1238   4.2538   8.9293

          k =-0.5000 0.5000 0.0000 (  2305 PWs)   bands (ev):

    -4.4407   4.7029   4.7426   7.3996

          k =-0.5000-0.5000 0.0000 (  2305 PWs)   bands (ev):

    -4.3482   2.4265   4.9157  10.3318

          k = 0.0000 0.0000 0.7500 (  2297 PWs)   bands (ev):

    -3.8153   3.7809   5.4023   7.1693

          k = 0.8750 0.1250 0.8750 (  2299 PWs)   bands (ev):

    -1.9786   1.1019   5.4798   6.6094

          k =-0.8750 0.8750-0.1250 (  2299 PWs)   bands (ev):

    -2.0617   1.8795   5.2454   5.6957

          k =-0.8750-0.8750 0.1250 (  2299 PWs)   bands (ev):

    -1.9995   1.8545   3.9762   7.0071

          k =-0.7500 0.7500 0.0000 (  2303 PWs)   bands (ev):

    -1.2032   1.5314   3.7652   5.6753

          k =-0.7500-0.7500 0.0000 (  2303 PWs)   bands (ev):

    -0.1178   0.0555   2.4890   7.6282

          k = 0.0000 0.0000-1.0000 (  2272 PWs)   bands (ev):

    -0.9839   0.4486   4.9439   6.6104

          k = 0.0000-0.5000-0.2500 (  2305 PWs)   bands (ev):

    -5.9105   5.0463   6.7392   9.8209

          k = 0.2500 0.0000 0.5000 (  2305 PWs)   bands (ev):

    -5.8992   5.3257   6.4794   9.5098

          k = 0.2500 0.5000 0.0000 (  2305 PWs)   bands (ev):

    -5.9056   4.2333   7.0214  10.7470

          k = 0.8750 0.3750 0.6250 (  2301 PWs)   bands (ev):

    -3.9894   1.8717   6.4903   8.2110

          k =-0.8750 0.3750-0.6250 (  2301 PWs)   bands (ev):

    -4.0567   3.0546   4.7355   8.8952

          k =-0.6250 0.8750-0.3750 (  2301 PWs)   bands (ev):

    -4.0386   2.8780   5.2426   8.3099

          k =-0.6250-0.8750 0.3750 (  2301 PWs)   bands (ev):

    -3.9788   2.0527   5.8712   8.4881

          k =-0.6250-0.3750-0.8750 (  2301 PWs)   bands (ev):

    -3.9654   1.7237   5.7428   9.2935

          k = 0.7500 0.2500 0.5000 (  2286 PWs)   bands (ev):

    -1.9375  -0.6607   6.9233   7.0773

          k =-0.7500 0.2500-0.5000 (  2286 PWs)   bands (ev):

    -2.5401   0.9496   4.5553   8.5165

          k =-0.5000-0.7500 0.2500 (  2286 PWs)   bands (ev):

    -1.9119  -0.6233   5.5846   8.3782

          k = 1.0000 0.2500 0.7500 (  2297 PWs)   bands (ev):

    -3.3772   2.7600   5.4095   6.8536

          k =-0.7500 1.0000-0.2500 (  2297 PWs)   bands (ev):

    -3.3507   3.3406   4.6205   6.7315

          k =-0.7500-0.2500-1.0000 (  2297 PWs)   bands (ev):

    -3.3221   2.1847   5.5206   7.3927

          k = 0.8750 0.1250 0.6250 (  2291 PWs)   bands (ev):

    -1.2053   0.4476   4.8242   5.8573

          k =-0.8750 0.1250-0.6250 (  2291 PWs)   bands (ev):

    -1.5508   1.7201   3.2119   6.5563

          k =-0.6250 0.8750-0.1250 (  2291 PWs)   bands (ev):

    -1.5827   1.7920   4.3510   5.0725

          k =-0.6250-0.8750 0.1250 (  2291 PWs)   bands (ev):

    -1.2114   0.8928   3.3935   6.7246

          k =-0.6250-0.1250-0.8750 (  2291 PWs)   bands (ev):

    -1.0849   0.3494   4.1573   6.5111

          k = 0.7500 0.0000 0.5000 (  2298 PWs)   bands (ev):

    -2.1077   1.6556   3.6382   7.1034

          k =-0.5000 0.7500 0.0000 (  2298 PWs)   bands (ev):

    -2.2927   2.9523   3.7953   5.4582

          k =-0.5000-0.7500 0.0000 (  2298 PWs)   bands (ev):

    -1.8772   0.9664   3.5147   7.7234

          k = 0.0000 1.0000-0.2500 (  2288 PWs)   bands (ev):

    -0.2124  -0.2124   5.2731   5.2731

          k = 0.2500 0.0000-1.0000 (  2288 PWs)   bands (ev):

    -0.7346   0.8353   3.9923   5.7284

          k = 0.0000 1.0000-0.5000 (  2268 PWs)   bands (ev):

     0.1403   0.1403   4.3711   4.3711

!    total energy              =     -35.58043416 Ry
     Harris-Foulkes estimate   =     -35.58043456 Ry
     estimated scf accuracy    <       0.00000042 Ry

     total all-electron energy =      -151.139430 Ry

     The total energy is the sum of the following terms:

     one-electron contribution =       7.62125927 Ry
     hartree contribution      =       2.02212527 Ry
     xc contribution           =      -8.26763021 Ry
     ewald contribution        =     -24.88797981 Ry
     one-center paw contrib.   =     -12.06820869 Ry

     convergence has been achieved in   5 iterations

     Forces acting on atoms (Ry/au):

     atom    1 type  1   force =     0.00000000    0.00000000   -0.20826584
     atom    2 type  1   force =    -0.00000000   -0.00000000    0.20826584

     Total force =     0.294532     Total SCF correction =     0.000065

     Writing output data file diamond.save

     init_run     :      4.28s CPU      4.24s WALL (       1 calls)
     electrons    :     41.37s CPU     39.58s WALL (       1 calls)
     forces       :      0.70s CPU      0.57s WALL (       1 calls)

     Called by init_run:
     wfcinit      :      3.45s CPU      3.36s WALL (       1 calls)
     potinit      :      0.06s CPU      0.06s WALL (       1 calls)

     Called by electrons:
     c_bands      :     35.15s CPU     33.44s WALL (       6 calls)
     sum_band     :      5.74s CPU      5.59s WALL (       6 calls)
     v_of_rho     :      0.09s CPU      0.09s WALL (       6 calls)
     newd         :      0.20s CPU      0.22s WALL (       6 calls)
     mix_rho      :      0.07s CPU      0.07s WALL (       6 calls)

     Called by c_bands:
     init_us_2    :      1.56s CPU      1.76s WALL (    1330 calls)
     cegterg      :     33.37s CPU     30.34s WALL (     570 calls)

     Called by *egterg:
     h_psi        :     29.60s CPU     28.58s WALL (    2145 calls)
     s_psi        :      1.97s CPU      1.17s WALL (    2145 calls)
     g_psi        :      0.14s CPU      0.17s WALL (    1480 calls)
     cdiaghg      :      0.44s CPU      0.40s WALL (    1955 calls)

     Called by h_psi:
     add_vuspsi   :      2.03s CPU      1.20s WALL (    2145 calls)

     General routines
     calbec       :      3.12s CPU      1.80s WALL (    2810 calls)
     fft          :      0.10s CPU      0.10s WALL (      42 calls)
     fftw         :     25.24s CPU     26.04s WALL (   17290 calls)
     davcio       :      0.21s CPU      1.43s WALL (    1900 calls)


     PAW routines
     PAW_pot      :      0.17s CPU      0.17s WALL (       6 calls)
     PAW_ddot     :      0.04s CPU      0.04s WALL (      22 calls)
     PAW_symme    :      0.00s CPU      0.00s WALL (      12 calls)

     PWSCF        :    46.81s CPU        44.99s WALL


   This run was terminated on:  21:55:39  26Mar2012            

=------------------------------------------------------------------------------=
   JOB DONE.
=------------------------------------------------------------------------------=
