
     Program PWSCF v.4.3.2      starts on 26Mar2012 at 21:49:39 

     This program is part of the open-source Quantum ESPRESSO suite
     for quantum simulation of materials; please cite
         "P. Giannozzi et al., J. Phys.:Condens. Matter 21 395502 (2009);
          URL http://www.quantum-espresso.org", 
     in publications or presentations arising from this work. More details at
     http://www.quantum-espresso.org/wiki/index.php/Citing_Quantum-ESPRESSO

     Current dimensions of program PWSCF are:
     Max number of different atomic species (ntypx) = 10
     Max number of k-points (npk) =  40000
     Max angular momentum in pseudopotentials (lmaxx) =  3
     Waiting for input...
     Reading input from stdin

     G-vector sticks info
     --------------------
     sticks:   dense  smooth     PW     G-vecs:    dense   smooth      PW
     Sum         913     913    265                17933    17933    2891



     bravais-lattice index     =            2
     lattice parameter (alat)  =       6.8300  a.u.
     unit-cell volume          =      79.6530 (a.u.)^3
     number of atoms/cell      =            2
     number of atomic types    =            1
     number of electrons       =         8.00
     number of Kohn-Sham states=            4
     kinetic-energy cutoff     =     140.0000  Ry
     charge density cutoff     =     560.0000  Ry
     convergence threshold     =      1.0E-06
     mixing beta               =       0.7000
     number of iterations used =            8  plain     mixing
     Exchange-correlation      =  SLA  PZ   NOGX NOGC ( 1 1 0 0 0)
     EXX-fraction              =        0.00

     celldm(1)=   6.830000  celldm(2)=   0.000000  celldm(3)=   0.000000
     celldm(4)=   0.000000  celldm(5)=   0.000000  celldm(6)=   0.000000

     crystal axes: (cart. coord. in units of alat)
               a(1) = (  -0.500000   0.000000   0.500000 )  
               a(2) = (   0.000000   0.500000   0.500000 )  
               a(3) = (  -0.500000   0.500000   0.000000 )  

     reciprocal axes: (cart. coord. in units 2 pi/alat)
               b(1) = ( -1.000000 -1.000000  1.000000 )  
               b(2) = (  1.000000  1.000000  1.000000 )  
               b(3) = ( -1.000000  1.000000 -1.000000 )  


     PseudoPot. # 1 for  C read from file:
     /home/mullspace/Documents/espresso-4.3.2/pseudo/C.pz-kjpaw.UPF
     MD5 check sum: 414e6e825ae75add557e798061b49a04
     Pseudo is Projector augmented-wave + core cor, Zval =  4.0
     Generated using "atomic" code by A. Dal Corso (espresso distribution)
     Shape of augmentation charge: BESSEL
     Using radial grid of 1073 points,  4 beta functions with: 
                l(1) =   0
                l(2) =   0
                l(3) =   1
                l(4) =   1
     Q(r) pseudized with 0 coefficients 


     atomic species   valence    mass     pseudopotential
        C              4.00    12.01070      C( 1.00)

      8 Sym.Ops. (with inversion)


   Cartesian axes

     site n.     atom                  positions (alat units)
         1           C   tau(   1) = (   0.0000000   0.0000000   0.0500000  )
         2           C   tau(   2) = (   0.2500000   0.2500000   0.2500000  )

     number of k points=    95
                       cart. coord. in units 2pi/alat
        k(    1) = (   0.0000000   0.0000000   0.0000000), wk =   0.0039063
        k(    2) = (  -0.1250000   0.1250000  -0.1250000), wk =   0.0156250
        k(    3) = (  -0.2500000   0.2500000  -0.2500000), wk =   0.0156250
        k(    4) = (  -0.3750000   0.3750000  -0.3750000), wk =   0.0156250
        k(    5) = (   0.5000000  -0.5000000   0.5000000), wk =   0.0078125
        k(    6) = (   0.0000000   0.2500000   0.0000000), wk =   0.0156250
        k(    7) = (  -0.1250000   0.3750000  -0.1250000), wk =   0.0312500
        k(    8) = (  -0.2500000   0.5000000  -0.2500000), wk =   0.0312500
        k(    9) = (   0.6250000  -0.3750000   0.6250000), wk =   0.0312500
        k(   10) = (   0.5000000  -0.2500000   0.5000000), wk =   0.0312500
        k(   11) = (   0.3750000  -0.1250000   0.3750000), wk =   0.0312500
        k(   12) = (   0.2500000   0.0000000   0.2500000), wk =   0.0312500
        k(   13) = (   0.0000000   0.5000000   0.0000000), wk =   0.0156250
        k(   14) = (  -0.1250000   0.6250000  -0.1250000), wk =   0.0312500
        k(   15) = (   0.7500000  -0.2500000   0.7500000), wk =   0.0312500
        k(   16) = (   0.6250000  -0.1250000   0.6250000), wk =   0.0312500
        k(   17) = (   0.5000000   0.0000000   0.5000000), wk =   0.0312500
        k(   18) = (   0.0000000   0.7500000   0.0000000), wk =   0.0156250
        k(   19) = (   0.8750000  -0.1250000   0.8750000), wk =   0.0312500
        k(   20) = (   0.7500000   0.0000000   0.7500000), wk =   0.0312500
        k(   21) = (   0.0000000  -1.0000000   0.0000000), wk =   0.0078125
        k(   22) = (  -0.2500000   0.5000000   0.0000000), wk =   0.0156250
        k(   23) = (   0.6250000  -0.3750000   0.8750000), wk =   0.0312500
        k(   24) = (   0.5000000  -0.2500000   0.7500000), wk =   0.0312500
        k(   25) = (   0.7500000  -0.2500000   1.0000000), wk =   0.0156250
        k(   26) = (   0.6250000  -0.1250000   0.8750000), wk =   0.0312500
        k(   27) = (   0.5000000   0.0000000   0.7500000), wk =   0.0312500
        k(   28) = (  -0.2500000  -1.0000000   0.0000000), wk =   0.0156250
        k(   29) = (  -0.5000000  -1.0000000   0.0000000), wk =   0.0156250
        k(   30) = (  -0.1250000  -0.1250000  -0.1250000), wk =   0.0156250
        k(   31) = (  -0.2500000  -0.2500000  -0.2500000), wk =   0.0156250
        k(   32) = (  -0.3750000  -0.3750000  -0.3750000), wk =   0.0156250
        k(   33) = (   0.5000000   0.5000000   0.5000000), wk =   0.0078125
        k(   34) = (   0.0000000   0.0000000   0.2500000), wk =   0.0078125
        k(   35) = (  -0.1250000  -0.3750000  -0.1250000), wk =   0.0312500
        k(   36) = (   0.1250000  -0.1250000   0.3750000), wk =   0.0156250
        k(   37) = (   0.1250000   0.1250000  -0.3750000), wk =   0.0156250
        k(   38) = (  -0.2500000  -0.5000000  -0.2500000), wk =   0.0312500
        k(   39) = (   0.2500000  -0.2500000   0.5000000), wk =   0.0156250
        k(   40) = (   0.2500000   0.2500000  -0.5000000), wk =   0.0156250
        k(   41) = (   0.6250000   0.3750000   0.6250000), wk =   0.0312500
        k(   42) = (  -0.6250000   0.6250000  -0.3750000), wk =   0.0156250
        k(   43) = (  -0.6250000  -0.6250000   0.3750000), wk =   0.0156250
        k(   44) = (   0.5000000   0.2500000   0.5000000), wk =   0.0312500
        k(   45) = (  -0.5000000   0.5000000  -0.2500000), wk =   0.0156250
        k(   46) = (  -0.5000000  -0.5000000   0.2500000), wk =   0.0156250
        k(   47) = (   0.3750000   0.1250000   0.3750000), wk =   0.0312500
        k(   48) = (  -0.3750000   0.3750000  -0.1250000), wk =   0.0156250
        k(   49) = (  -0.3750000  -0.3750000   0.1250000), wk =   0.0156250
        k(   50) = (  -0.2500000   0.2500000   0.0000000), wk =   0.0078125
        k(   51) = (  -0.2500000  -0.2500000   0.0000000), wk =   0.0078125
        k(   52) = (   0.0000000   0.0000000   0.5000000), wk =   0.0078125
        k(   53) = (  -0.1250000  -0.6250000  -0.1250000), wk =   0.0312500
        k(   54) = (   0.1250000  -0.1250000   0.6250000), wk =   0.0156250
        k(   55) = (   0.1250000   0.1250000  -0.6250000), wk =   0.0156250
        k(   56) = (   0.7500000   0.2500000   0.7500000), wk =   0.0312500
        k(   57) = (  -0.7500000   0.7500000  -0.2500000), wk =   0.0156250
        k(   58) = (  -0.7500000  -0.7500000   0.2500000), wk =   0.0156250
        k(   59) = (   0.6250000   0.1250000   0.6250000), wk =   0.0312500
        k(   60) = (  -0.6250000   0.6250000  -0.1250000), wk =   0.0156250
        k(   61) = (  -0.6250000  -0.6250000   0.1250000), wk =   0.0156250
        k(   62) = (  -0.5000000   0.5000000   0.0000000), wk =   0.0078125
        k(   63) = (  -0.5000000  -0.5000000   0.0000000), wk =   0.0078125
        k(   64) = (   0.0000000   0.0000000   0.7500000), wk =   0.0078125
        k(   65) = (   0.8750000   0.1250000   0.8750000), wk =   0.0312500
        k(   66) = (  -0.8750000   0.8750000  -0.1250000), wk =   0.0156250
        k(   67) = (  -0.8750000  -0.8750000   0.1250000), wk =   0.0156250
        k(   68) = (  -0.7500000   0.7500000   0.0000000), wk =   0.0078125
        k(   69) = (  -0.7500000  -0.7500000   0.0000000), wk =   0.0078125
        k(   70) = (   0.0000000   0.0000000  -1.0000000), wk =   0.0039063
        k(   71) = (   0.0000000  -0.5000000  -0.2500000), wk =   0.0312500
        k(   72) = (   0.2500000   0.0000000   0.5000000), wk =   0.0312500
        k(   73) = (   0.2500000   0.5000000   0.0000000), wk =   0.0156250
        k(   74) = (   0.8750000   0.3750000   0.6250000), wk =   0.0312500
        k(   75) = (  -0.8750000   0.3750000  -0.6250000), wk =   0.0312500
        k(   76) = (  -0.6250000   0.8750000  -0.3750000), wk =   0.0312500
        k(   77) = (  -0.6250000  -0.8750000   0.3750000), wk =   0.0312500
        k(   78) = (  -0.6250000  -0.3750000  -0.8750000), wk =   0.0312500
        k(   79) = (   0.7500000   0.2500000   0.5000000), wk =   0.0156250
        k(   80) = (  -0.7500000   0.2500000  -0.5000000), wk =   0.0156250
        k(   81) = (  -0.5000000  -0.7500000   0.2500000), wk =   0.0312500
        k(   82) = (   1.0000000   0.2500000   0.7500000), wk =   0.0312500
        k(   83) = (  -0.7500000   1.0000000  -0.2500000), wk =   0.0312500
        k(   84) = (  -0.7500000  -0.2500000  -1.0000000), wk =   0.0156250
        k(   85) = (   0.8750000   0.1250000   0.6250000), wk =   0.0312500
        k(   86) = (  -0.8750000   0.1250000  -0.6250000), wk =   0.0312500
        k(   87) = (  -0.6250000   0.8750000  -0.1250000), wk =   0.0312500
        k(   88) = (  -0.6250000  -0.8750000   0.1250000), wk =   0.0312500
        k(   89) = (  -0.6250000  -0.1250000  -0.8750000), wk =   0.0312500
        k(   90) = (   0.7500000   0.0000000   0.5000000), wk =   0.0312500
        k(   91) = (  -0.5000000   0.7500000   0.0000000), wk =   0.0156250
        k(   92) = (  -0.5000000  -0.7500000   0.0000000), wk =   0.0156250
        k(   93) = (   0.0000000   1.0000000  -0.2500000), wk =   0.0156250
        k(   94) = (   0.2500000   0.0000000  -1.0000000), wk =   0.0156250
        k(   95) = (   0.0000000   1.0000000  -0.5000000), wk =   0.0078125

     Dense  grid:    17933 G-vectors     FFT dimensions: (  40,  40,  40)

     Largest allocated arrays     est. size (Mb)     dimensions
        Kohn-Sham Wavefunctions         0.14 Mb     (   2252,    4)
        NL pseudopotentials             0.55 Mb     (   2252,   16)
        Each V/rho on FFT grid          0.98 Mb     (  64000)
        Each G-vector array             0.14 Mb     (  17933)
        G-vector shells                 0.00 Mb     (    223)
     Largest temporary arrays     est. size (Mb)     dimensions
        Auxiliary wavefunctions         0.55 Mb     (   2252,   16)
        Each subspace H/S matrix        0.00 Mb     (  16,  16)
        Each <psi_i|beta_j> matrix      0.00 Mb     (     16,    4)
        Arrays for rho mixing           7.81 Mb     (  64000,   8)

     Initial potential from superposition of free atoms

     starting charge    7.99993, renormalised to    8.00000
     Starting wfc are    8 atomic wfcs

     total cpu time spent up to now is        4.3 secs

     per-process dynamical memory:    12.4 Mb

     Self-consistent Calculation

     iteration #  1     ecut=   140.00 Ry     beta=0.70
     Davidson diagonalization with overlap
     ethr =  1.00E-02,  avg # of iterations =  2.7

     total cpu time spent up to now is       10.0 secs

     total energy              =     -35.55179227 Ry
     Harris-Foulkes estimate   =     -35.59473986 Ry
     estimated scf accuracy    <       0.08074979 Ry

     iteration #  2     ecut=   140.00 Ry     beta=0.70
     Davidson diagonalization with overlap
     ethr =  1.01E-03,  avg # of iterations =  2.9

     total cpu time spent up to now is       16.7 secs

     total energy              =     -35.58123736 Ry
     Harris-Foulkes estimate   =     -35.58624789 Ry
     estimated scf accuracy    <       0.00951991 Ry

     iteration #  3     ecut=   140.00 Ry     beta=0.70
     Davidson diagonalization with overlap
     ethr =  1.19E-04,  avg # of iterations =  2.7

     total cpu time spent up to now is       23.4 secs

     total energy              =     -35.58400554 Ry
     Harris-Foulkes estimate   =     -35.58465671 Ry
     estimated scf accuracy    <       0.00102498 Ry

     iteration #  4     ecut=   140.00 Ry     beta=0.70
     Davidson diagonalization with overlap
     ethr =  1.28E-05,  avg # of iterations =  3.0

     total cpu time spent up to now is       30.5 secs

     total energy              =     -35.58433008 Ry
     Harris-Foulkes estimate   =     -35.58432963 Ry
     estimated scf accuracy    <       0.00001650 Ry

     iteration #  5     ecut=   140.00 Ry     beta=0.70
     Davidson diagonalization with overlap
     ethr =  2.06E-07,  avg # of iterations =  3.7

     total cpu time spent up to now is       38.0 secs

     total energy              =     -35.58434645 Ry
     Harris-Foulkes estimate   =     -35.58435556 Ry
     estimated scf accuracy    <       0.00001411 Ry

     iteration #  6     ecut=   140.00 Ry     beta=0.70
     Davidson diagonalization with overlap
     ethr =  1.76E-07,  avg # of iterations =  1.8

     total cpu time spent up to now is       43.1 secs

     End of self-consistent calculation

          k = 0.0000 0.0000 0.0000 (  2229 PWs)   bands (ev):

    -8.4489   9.7530  12.8216  15.0259

          k =-0.1250 0.1250-0.1250 (  2193 PWs)   bands (ev):

    -8.0306   9.4113  10.6450  13.2277

          k =-0.2500 0.2500-0.2500 (  2214 PWs)   bands (ev):

    -6.7938   6.4645   8.7155  12.0890

          k =-0.3750 0.3750-0.3750 (  2229 PWs)   bands (ev):

    -4.8396   2.4731   8.1429  11.4131

          k = 0.5000-0.5000 0.5000 (  2252 PWs)   bands (ev):

    -3.1560   0.0797   7.9315  11.1901

          k = 0.0000 0.2500 0.0000 (  2201 PWs)   bands (ev):

    -7.8943   8.6852  10.9940  12.9200

          k =-0.1250 0.3750-0.1250 (  2227 PWs)   bands (ev):

    -6.9307   8.0459   8.2015  10.9890

          k =-0.2500 0.5000-0.2500 (  2243 PWs)   bands (ev):

    -5.2043   4.0510   7.4820  10.2197

          k = 0.6250-0.3750 0.6250 (  2236 PWs)   bands (ev):

    -3.1339   0.8268   6.9385  10.0753

          k = 0.5000-0.2500 0.5000 (  2226 PWs)   bands (ev):

    -3.7636   1.6661   6.7353  10.5426

          k = 0.3750-0.1250 0.3750 (  2213 PWs)   bands (ev):

    -5.8512   5.2751   6.9904  11.4400

          k = 0.2500 0.0000 0.2500 (  2227 PWs)   bands (ev):

    -7.3403   7.6075   9.3147  12.3970

          k = 0.0000 0.5000 0.0000 (  2221 PWs)   bands (ev):

    -6.2523   6.4653   8.6291   9.8594

          k =-0.1250 0.6250-0.1250 (  2229 PWs)   bands (ev):

    -4.7932   5.5122   6.2011   8.4386

          k = 0.7500-0.2500 0.7500 (  2226 PWs)   bands (ev):

    -2.7767   2.6223   4.7814   8.2666

          k = 0.6250-0.1250 0.6250 (  2235 PWs)   bands (ev):

    -2.1679   1.7990   4.0684   8.8171

          k = 0.5000 0.0000 0.5000 (  2217 PWs)   bands (ev):

    -4.1511   3.6767   4.9903   9.8645

          k = 0.0000 0.7500 0.0000 (  2221 PWs)   bands (ev):

    -3.6055   3.4997   7.0602   7.4351

          k = 0.8750-0.1250 0.8750 (  2231 PWs)   bands (ev):

    -1.8032   1.9902   5.2652   7.0136

          k = 0.7500 0.0000 0.7500 (  2245 PWs)   bands (ev):

    -0.4323   0.8596   3.5611   7.5068

          k = 0.0000-1.0000 0.0000 (  2232 PWs)   bands (ev):

    -0.1707  -0.1707   6.5829   6.5829

          k =-0.2500 0.5000 0.0000 (  2227 PWs)   bands (ev):

    -5.7207   7.0724   7.4415   7.7645

          k = 0.6250-0.3750 0.8750 (  2227 PWs)   bands (ev):

    -3.8284   3.4776   6.6752   7.1948

          k = 0.5000-0.2500 0.7500 (  2226 PWs)   bands (ev):

    -2.2171   1.1268   5.9141   7.6556

          k = 0.7500-0.2500 1.0000 (  2221 PWs)   bands (ev):

    -3.1646   4.2041   5.7285   5.9758

          k = 0.6250-0.1250 0.8750 (  2234 PWs)   bands (ev):

    -1.2873   2.3671   3.7361   6.2493

          k = 0.5000 0.0000 0.7500 (  2240 PWs)   bands (ev):

    -1.7923   2.2305   3.6747   7.3673

          k =-0.2500-1.0000 0.0000 (  2228 PWs)   bands (ev):

    -0.0773   0.3782   5.3574   5.7305

          k =-0.5000-1.0000 0.0000 (  2244 PWs)   bands (ev):

     0.0402   1.3968   3.6552   5.0792

          k =-0.1250-0.1250-0.1250 (  2193 PWs)   bands (ev):

    -8.0331   8.4133  11.6670  13.5408

          k =-0.2500-0.2500-0.2500 (  2214 PWs)   bands (ev):

    -6.7965   5.1857  10.1158  12.2042

          k =-0.3750-0.3750-0.3750 (  2229 PWs)   bands (ev):

    -4.7838   1.5189   9.1635  11.3971

          k = 0.5000 0.5000 0.5000 (  2252 PWs)   bands (ev):

    -2.5819  -1.2901   8.8461  11.1312

          k = 0.0000 0.0000 0.2500 (  2201 PWs)   bands (ev):

    -7.8906   8.7964  11.3848  11.8961

          k =-0.1250-0.3750-0.1250 (  2227 PWs)   bands (ev):

    -6.9343   6.2585   9.5269  12.0406

          k = 0.1250-0.1250 0.3750 (  2227 PWs)   bands (ev):

    -6.9244   7.8522   7.9915  11.4237

          k = 0.1250 0.1250-0.3750 (  2227 PWs)   bands (ev):

    -6.9251   6.5780   9.9524  10.6258

          k =-0.2500-0.5000-0.2500 (  2243 PWs)   bands (ev):

    -5.1807   2.8898   8.5054  10.6977

          k = 0.2500-0.2500 0.5000 (  2243 PWs)   bands (ev):

    -5.1916   3.9091   7.4748  10.3936

          k = 0.2500 0.2500-0.5000 (  2243 PWs)   bands (ev):

    -5.1703   3.0263   8.6362  10.0263

          k = 0.6250 0.3750 0.6250 (  2236 PWs)   bands (ev):

    -2.7857  -0.3919   8.0894   9.9060

          k =-0.6250 0.6250-0.3750 (  2236 PWs)   bands (ev):

    -3.1174   0.7712   7.4370   9.4261

          k =-0.6250-0.6250 0.3750 (  2236 PWs)   bands (ev):

    -2.7846  -0.3509   7.7190  10.1495

          k = 0.5000 0.2500 0.5000 (  2226 PWs)   bands (ev):

    -3.6246   0.6743   8.0489  10.0193

          k =-0.5000 0.5000-0.2500 (  2226 PWs)   bands (ev):

    -3.7798   1.7229   7.8731   8.9001

          k =-0.5000-0.5000 0.2500 (  2226 PWs)   bands (ev):

    -3.6213   0.6295   7.4117  10.9519

          k = 0.3750 0.1250 0.3750 (  2213 PWs)   bands (ev):

    -5.8453   4.2088   8.4125  10.9790

          k =-0.3750 0.3750-0.1250 (  2213 PWs)   bands (ev):

    -5.8577   5.4293   8.6207   8.9856

          k =-0.3750-0.3750 0.1250 (  2213 PWs)   bands (ev):

    -5.8526   3.9831   7.9225  12.3076

          k =-0.2500 0.2500 0.0000 (  2227 PWs)   bands (ev):

    -7.3403   9.2388   9.3114  10.1008

          k =-0.2500-0.2500 0.0000 (  2227 PWs)   bands (ev):

    -7.3476   6.7607   9.6607  13.8381

          k = 0.0000 0.0000 0.5000 (  2221 PWs)   bands (ev):

    -6.2363   7.0664   8.1558   9.2226

          k =-0.1250-0.6250-0.1250 (  2229 PWs)   bands (ev):

    -4.7793   4.0523   7.5373   8.8429

          k = 0.1250-0.1250 0.6250 (  2229 PWs)   bands (ev):

    -4.7655   5.2868   6.4726   8.1309

          k = 0.1250 0.1250-0.6250 (  2229 PWs)   bands (ev):

    -4.7581   4.7331   6.6766   8.4865

          k = 0.7500 0.2500 0.7500 (  2226 PWs)   bands (ev):

    -2.5940   1.2158   6.3253   8.0869

          k =-0.7500 0.7500-0.2500 (  2226 PWs)   bands (ev):

    -2.7341   2.3086   6.4277   6.5884

          k =-0.7500-0.7500 0.2500 (  2226 PWs)   bands (ev):

    -2.5875   1.5221   5.3397   8.5320

          k = 0.6250 0.1250 0.6250 (  2235 PWs)   bands (ev):

    -1.8727   0.5360   5.2715   8.5918

          k =-0.6250 0.6250-0.1250 (  2235 PWs)   bands (ev):

    -2.2311   1.8649   5.4667   6.9366

          k =-0.6250-0.6250 0.1250 (  2235 PWs)   bands (ev):

    -1.7815   0.4391   4.5889   9.3465

          k =-0.5000 0.5000 0.0000 (  2217 PWs)   bands (ev):

    -4.1953   5.0659   5.0697   7.8161

          k =-0.5000-0.5000 0.0000 (  2217 PWs)   bands (ev):

    -4.1277   2.8210   5.2355  10.7883

          k = 0.0000 0.0000 0.7500 (  2221 PWs)   bands (ev):

    -3.5692   4.1849   5.7524   7.5382

          k = 0.8750 0.1250 0.8750 (  2231 PWs)   bands (ev):

    -1.6981   1.4778   5.7992   6.9674

          k =-0.8750 0.8750-0.1250 (  2231 PWs)   bands (ev):

    -1.7581   2.2285   5.5915   6.0155

          k =-0.8750-0.8750 0.1250 (  2231 PWs)   bands (ev):

    -1.7025   2.2171   4.2837   7.3721

          k =-0.7500 0.7500 0.0000 (  2245 PWs)   bands (ev):

    -0.8270   1.8319   4.0182   6.0352

          k =-0.7500-0.7500 0.0000 (  2245 PWs)   bands (ev):

     0.2496   0.3849   2.7293   8.0099

          k = 0.0000 0.0000-1.0000 (  2232 PWs)   bands (ev):

    -0.6258   0.7276   5.2810   6.9650

          k = 0.0000-0.5000-0.2500 (  2227 PWs)   bands (ev):

    -5.7155   5.4556   7.1208  10.2741

          k = 0.2500 0.0000 0.5000 (  2227 PWs)   bands (ev):

    -5.7033   5.7188   6.8745   9.9627

          k = 0.2500 0.5000 0.0000 (  2227 PWs)   bands (ev):

    -5.7164   4.6504   7.3924  11.2199

          k = 0.8750 0.3750 0.6250 (  2227 PWs)   bands (ev):

    -3.7507   2.2143   6.8648   8.6246

          k =-0.8750 0.3750-0.6250 (  2227 PWs)   bands (ev):

    -3.8074   3.3750   5.1133   9.3108

          k =-0.6250 0.8750-0.3750 (  2227 PWs)   bands (ev):

    -3.7882   3.2011   5.6099   8.7296

          k =-0.6250-0.8750 0.3750 (  2227 PWs)   bands (ev):

    -3.7373   2.3812   6.2627   8.8959

          k =-0.6250-0.3750-0.8750 (  2227 PWs)   bands (ev):

    -3.7351   2.0826   6.1034   9.7190

          k = 0.7500 0.2500 0.5000 (  2226 PWs)   bands (ev):

    -1.6234  -0.4033   7.2988   7.4731

          k =-0.7500 0.2500-0.5000 (  2226 PWs)   bands (ev):

    -2.2158   1.1747   4.9407   8.9161

          k =-0.5000-0.7500 0.2500 (  2226 PWs)   bands (ev):

    -1.6013  -0.3661   5.9649   8.7753

          k = 1.0000 0.2500 0.7500 (  2221 PWs)   bands (ev):

    -3.1214   3.1566   5.7458   7.2101

          k =-0.7500 1.0000-0.2500 (  2221 PWs)   bands (ev):

    -3.0899   3.7363   4.9518   7.0838

          k =-0.7500-0.2500-1.0000 (  2221 PWs)   bands (ev):

    -3.0769   2.5899   5.8542   7.7559

          k = 0.8750 0.1250 0.6250 (  2234 PWs)   bands (ev):

    -0.8902   0.7899   5.1305   6.1976

          k =-0.8750 0.1250-0.6250 (  2234 PWs)   bands (ev):

    -1.2232   2.0883   3.4743   6.9002

          k =-0.6250 0.8750-0.1250 (  2234 PWs)   bands (ev):

    -1.2392   2.1042   4.6743   5.3865

          k =-0.6250-0.8750 0.1250 (  2234 PWs)   bands (ev):

    -0.8874   1.2255   3.6970   7.0715

          k =-0.6250-0.1250-0.8750 (  2234 PWs)   bands (ev):

    -0.7816   0.7056   4.4631   6.8510

          k = 0.7500 0.0000 0.5000 (  2240 PWs)   bands (ev):

    -1.8062   2.0164   3.9194   7.4713

          k =-0.5000 0.7500 0.0000 (  2240 PWs)   bands (ev):

    -1.9717   3.2949   4.0737   5.8151

          k =-0.5000-0.7500 0.0000 (  2240 PWs)   bands (ev):

    -1.6013   1.3519   3.7968   8.0992

          k = 0.0000 1.0000-0.2500 (  2228 PWs)   bands (ev):

     0.1250   0.1250   5.5892   5.5892

          k = 0.2500 0.0000-1.0000 (  2228 PWs)   bands (ev):

    -0.3647   1.1366   4.3026   6.0483

          k = 0.0000 1.0000-0.5000 (  2244 PWs)   bands (ev):

     0.5027   0.5027   4.6490   4.6490

!    total energy              =     -35.58434784 Ry
     Harris-Foulkes estimate   =     -35.58434784 Ry
     estimated scf accuracy    <       0.00000001 Ry

     total all-electron energy =      -151.143344 Ry

     The total energy is the sum of the following terms:

     one-electron contribution =       7.95925967 Ry
     hartree contribution      =       1.98806595 Ry
     xc contribution           =      -8.31836857 Ry
     ewald contribution        =     -25.14305427 Ry
     one-center paw contrib.   =     -12.07025061 Ry

     convergence has been achieved in   6 iterations

     Forces acting on atoms (Ry/au):

     atom    1 type  1   force =     0.00000000    0.00000000   -0.21935380
     atom    2 type  1   force =     0.00000000    0.00000000    0.21935380

     Total force =     0.310213     Total SCF correction =     0.000045

     Writing output data file diamond.save

     init_run     :      4.18s CPU      4.11s WALL (       1 calls)
     electrons    :     40.57s CPU     38.76s WALL (       1 calls)
     forces       :      0.80s CPU      0.67s WALL (       1 calls)

     Called by init_run:
     wfcinit      :      3.37s CPU      3.26s WALL (       1 calls)
     potinit      :      0.05s CPU      0.06s WALL (       1 calls)

     Called by electrons:
     c_bands      :     34.43s CPU     32.62s WALL (       6 calls)
     sum_band     :      5.53s CPU      5.43s WALL (       6 calls)
     v_of_rho     :      0.10s CPU      0.10s WALL (       7 calls)
     newd         :      0.25s CPU      0.25s WALL (       7 calls)
     mix_rho      :      0.10s CPU      0.10s WALL (       6 calls)

     Called by c_bands:
     init_us_2    :      1.44s CPU      1.70s WALL (    1330 calls)
     cegterg      :     32.67s CPU     29.65s WALL (     570 calls)

     Called by *egterg:
     h_psi        :     28.99s CPU     27.84s WALL (    2259 calls)
     s_psi        :      1.91s CPU      1.13s WALL (    2259 calls)
     g_psi        :      0.17s CPU      0.17s WALL (    1594 calls)
     cdiaghg      :      0.39s CPU      0.43s WALL (    2164 calls)

     Called by h_psi:
     add_vuspsi   :      2.08s CPU      1.17s WALL (    2259 calls)

     General routines
     calbec       :      2.92s CPU      1.75s WALL (    2924 calls)
     fft          :      0.12s CPU      0.11s WALL (      45 calls)
     fftw         :     24.64s CPU     25.29s WALL (   17432 calls)
     davcio       :      0.19s CPU      1.36s WALL (    1900 calls)


     PAW routines
     PAW_pot      :      0.20s CPU      0.19s WALL (       7 calls)
     PAW_ddot     :      0.07s CPU      0.07s WALL (      36 calls)
     PAW_symme    :      0.00s CPU      0.00s WALL (      13 calls)

     PWSCF        :    46.02s CPU        44.15s WALL


   This run was terminated on:  21:50:24  26Mar2012            

=------------------------------------------------------------------------------=
   JOB DONE.
=------------------------------------------------------------------------------=
