
     Program PWSCF v.4.3.2      starts on 26Mar2012 at 21:42:40 

     This program is part of the open-source Quantum ESPRESSO suite
     for quantum simulation of materials; please cite
         "P. Giannozzi et al., J. Phys.:Condens. Matter 21 395502 (2009);
          URL http://www.quantum-espresso.org", 
     in publications or presentations arising from this work. More details at
     http://www.quantum-espresso.org/wiki/index.php/Citing_Quantum-ESPRESSO

     Current dimensions of program PWSCF are:
     Max number of different atomic species (ntypx) = 10
     Max number of k-points (npk) =  40000
     Max angular momentum in pseudopotentials (lmaxx) =  3
     Waiting for input...
     Reading input from stdin
     warning: symmetry operation #  5 not allowed.   fractional translation:
       0.2000000  0.2000000  0.3000000  in crystal coordinates
     warning: symmetry operation #  6 not allowed.   fractional translation:
       0.2000000  0.2000000  0.3000000  in crystal coordinates
     warning: symmetry operation # 25 not allowed.   fractional translation:
       0.2000000  0.2000000  0.3000000  in crystal coordinates
     warning: symmetry operation # 26 not allowed.   fractional translation:
       0.2000000  0.2000000  0.3000000  in crystal coordinates

     G-vector sticks info
     --------------------
     sticks:   dense  smooth     PW     G-vecs:    dense   smooth      PW
     Sum         859     859    253                16889    16889    2741



     bravais-lattice index     =            2
     lattice parameter (alat)  =       6.7300  a.u.
     unit-cell volume          =      76.2053 (a.u.)^3
     number of atoms/cell      =            2
     number of atomic types    =            1
     number of electrons       =         8.00
     number of Kohn-Sham states=            4
     kinetic-energy cutoff     =     140.0000  Ry
     charge density cutoff     =     560.0000  Ry
     convergence threshold     =      1.0E-06
     mixing beta               =       0.7000
     number of iterations used =            8  plain     mixing
     Exchange-correlation      =  SLA  PZ   NOGX NOGC ( 1 1 0 0 0)
     EXX-fraction              =        0.00

     celldm(1)=   6.730000  celldm(2)=   0.000000  celldm(3)=   0.000000
     celldm(4)=   0.000000  celldm(5)=   0.000000  celldm(6)=   0.000000

     crystal axes: (cart. coord. in units of alat)
               a(1) = (  -0.500000   0.000000   0.500000 )  
               a(2) = (   0.000000   0.500000   0.500000 )  
               a(3) = (  -0.500000   0.500000   0.000000 )  

     reciprocal axes: (cart. coord. in units 2 pi/alat)
               b(1) = ( -1.000000 -1.000000  1.000000 )  
               b(2) = (  1.000000  1.000000  1.000000 )  
               b(3) = ( -1.000000  1.000000 -1.000000 )  


     PseudoPot. # 1 for  C read from file:
     /home/mullspace/Documents/espresso-4.3.2/pseudo/C.pz-kjpaw.UPF
     MD5 check sum: 414e6e825ae75add557e798061b49a04
     Pseudo is Projector augmented-wave + core cor, Zval =  4.0
     Generated using "atomic" code by A. Dal Corso (espresso distribution)
     Shape of augmentation charge: BESSEL
     Using radial grid of 1073 points,  4 beta functions with: 
                l(1) =   0
                l(2) =   0
                l(3) =   1
                l(4) =   1
     Q(r) pseudized with 0 coefficients 


     atomic species   valence    mass     pseudopotential
        C              4.00    12.01070      C( 1.00)

      4 Sym.Ops. (no inversion)


   Cartesian axes

     site n.     atom                  positions (alat units)
         1           C   tau(   1) = (   0.0000000   0.0000000   0.0500000  )
         2           C   tau(   2) = (   0.2500000   0.2500000   0.2500000  )

     number of k points=    95
                       cart. coord. in units 2pi/alat
        k(    1) = (   0.0000000   0.0000000   0.0000000), wk =   0.0039063
        k(    2) = (  -0.1250000   0.1250000  -0.1250000), wk =   0.0156250
        k(    3) = (  -0.2500000   0.2500000  -0.2500000), wk =   0.0156250
        k(    4) = (  -0.3750000   0.3750000  -0.3750000), wk =   0.0156250
        k(    5) = (   0.5000000  -0.5000000   0.5000000), wk =   0.0078125
        k(    6) = (   0.0000000   0.2500000   0.0000000), wk =   0.0156250
        k(    7) = (  -0.1250000   0.3750000  -0.1250000), wk =   0.0312500
        k(    8) = (  -0.2500000   0.5000000  -0.2500000), wk =   0.0312500
        k(    9) = (   0.6250000  -0.3750000   0.6250000), wk =   0.0312500
        k(   10) = (   0.5000000  -0.2500000   0.5000000), wk =   0.0312500
        k(   11) = (   0.3750000  -0.1250000   0.3750000), wk =   0.0312500
        k(   12) = (   0.2500000   0.0000000   0.2500000), wk =   0.0312500
        k(   13) = (   0.0000000   0.5000000   0.0000000), wk =   0.0156250
        k(   14) = (  -0.1250000   0.6250000  -0.1250000), wk =   0.0312500
        k(   15) = (   0.7500000  -0.2500000   0.7500000), wk =   0.0312500
        k(   16) = (   0.6250000  -0.1250000   0.6250000), wk =   0.0312500
        k(   17) = (   0.5000000   0.0000000   0.5000000), wk =   0.0312500
        k(   18) = (   0.0000000   0.7500000   0.0000000), wk =   0.0156250
        k(   19) = (   0.8750000  -0.1250000   0.8750000), wk =   0.0312500
        k(   20) = (   0.7500000   0.0000000   0.7500000), wk =   0.0312500
        k(   21) = (   0.0000000  -1.0000000   0.0000000), wk =   0.0078125
        k(   22) = (  -0.2500000   0.5000000   0.0000000), wk =   0.0156250
        k(   23) = (   0.6250000  -0.3750000   0.8750000), wk =   0.0312500
        k(   24) = (   0.5000000  -0.2500000   0.7500000), wk =   0.0312500
        k(   25) = (   0.7500000  -0.2500000   1.0000000), wk =   0.0156250
        k(   26) = (   0.6250000  -0.1250000   0.8750000), wk =   0.0312500
        k(   27) = (   0.5000000   0.0000000   0.7500000), wk =   0.0312500
        k(   28) = (  -0.2500000  -1.0000000   0.0000000), wk =   0.0156250
        k(   29) = (  -0.5000000  -1.0000000   0.0000000), wk =   0.0156250
        k(   30) = (   0.1250000   0.1250000  -0.1250000), wk =   0.0156250
        k(   31) = (   0.2500000   0.2500000  -0.2500000), wk =   0.0156250
        k(   32) = (   0.3750000   0.3750000  -0.3750000), wk =   0.0156250
        k(   33) = (  -0.5000000  -0.5000000   0.5000000), wk =   0.0078125
        k(   34) = (   0.0000000   0.0000000   0.2500000), wk =   0.0078125
        k(   35) = (   0.3750000   0.1250000  -0.1250000), wk =   0.0312500
        k(   36) = (   0.1250000  -0.1250000   0.3750000), wk =   0.0156250
        k(   37) = (   0.1250000   0.1250000  -0.3750000), wk =   0.0156250
        k(   38) = (   0.5000000   0.2500000  -0.2500000), wk =   0.0312500
        k(   39) = (   0.2500000  -0.2500000   0.5000000), wk =   0.0156250
        k(   40) = (   0.2500000   0.2500000  -0.5000000), wk =   0.0156250
        k(   41) = (  -0.3750000  -0.6250000   0.6250000), wk =   0.0312500
        k(   42) = (  -0.6250000   0.6250000  -0.3750000), wk =   0.0156250
        k(   43) = (  -0.6250000  -0.6250000   0.3750000), wk =   0.0156250
        k(   44) = (  -0.2500000  -0.5000000   0.5000000), wk =   0.0312500
        k(   45) = (  -0.5000000   0.5000000  -0.2500000), wk =   0.0156250
        k(   46) = (  -0.5000000  -0.5000000   0.2500000), wk =   0.0156250
        k(   47) = (  -0.1250000  -0.3750000   0.3750000), wk =   0.0312500
        k(   48) = (  -0.3750000   0.3750000  -0.1250000), wk =   0.0156250
        k(   49) = (  -0.3750000  -0.3750000   0.1250000), wk =   0.0156250
        k(   50) = (  -0.2500000   0.2500000   0.0000000), wk =   0.0078125
        k(   51) = (  -0.2500000  -0.2500000   0.0000000), wk =   0.0078125
        k(   52) = (   0.0000000   0.0000000   0.5000000), wk =   0.0078125
        k(   53) = (   0.6250000   0.1250000  -0.1250000), wk =   0.0312500
        k(   54) = (   0.1250000  -0.1250000   0.6250000), wk =   0.0156250
        k(   55) = (   0.1250000   0.1250000  -0.6250000), wk =   0.0156250
        k(   56) = (  -0.2500000  -0.7500000   0.7500000), wk =   0.0312500
        k(   57) = (  -0.7500000   0.7500000  -0.2500000), wk =   0.0156250
        k(   58) = (  -0.7500000  -0.7500000   0.2500000), wk =   0.0156250
        k(   59) = (  -0.1250000  -0.6250000   0.6250000), wk =   0.0312500
        k(   60) = (  -0.6250000   0.6250000  -0.1250000), wk =   0.0156250
        k(   61) = (  -0.6250000  -0.6250000   0.1250000), wk =   0.0156250
        k(   62) = (  -0.5000000   0.5000000   0.0000000), wk =   0.0078125
        k(   63) = (  -0.5000000  -0.5000000   0.0000000), wk =   0.0078125
        k(   64) = (   0.0000000   0.0000000   0.7500000), wk =   0.0078125
        k(   65) = (  -0.1250000  -0.8750000   0.8750000), wk =   0.0312500
        k(   66) = (  -0.8750000   0.8750000  -0.1250000), wk =   0.0156250
        k(   67) = (  -0.8750000  -0.8750000   0.1250000), wk =   0.0156250
        k(   68) = (  -0.7500000   0.7500000   0.0000000), wk =   0.0078125
        k(   69) = (  -0.7500000  -0.7500000   0.0000000), wk =   0.0078125
        k(   70) = (   0.0000000   0.0000000  -1.0000000), wk =   0.0039063
        k(   71) = (   0.5000000   0.2500000   0.0000000), wk =   0.0156250
        k(   72) = (   0.0000000  -0.5000000  -0.2500000), wk =   0.0312500
        k(   73) = (   0.2500000   0.0000000   0.5000000), wk =   0.0312500
        k(   74) = (  -0.3750000  -0.6250000   0.8750000), wk =   0.0312500
        k(   75) = (   0.8750000   0.3750000   0.6250000), wk =   0.0312500
        k(   76) = (  -0.8750000   0.3750000  -0.6250000), wk =   0.0312500
        k(   77) = (  -0.6250000   0.8750000  -0.3750000), wk =   0.0312500
        k(   78) = (  -0.6250000  -0.8750000   0.3750000), wk =   0.0312500
        k(   79) = (  -0.2500000  -0.5000000   0.7500000), wk =   0.0312500
        k(   80) = (   0.7500000   0.2500000   0.5000000), wk =   0.0156250
        k(   81) = (  -0.7500000   0.2500000  -0.5000000), wk =   0.0156250
        k(   82) = (  -0.2500000  -0.7500000   1.0000000), wk =   0.0156250
        k(   83) = (   1.0000000   0.2500000   0.7500000), wk =   0.0312500
        k(   84) = (  -0.7500000   1.0000000  -0.2500000), wk =   0.0312500
        k(   85) = (  -0.1250000  -0.6250000   0.8750000), wk =   0.0312500
        k(   86) = (   0.8750000   0.1250000   0.6250000), wk =   0.0312500
        k(   87) = (  -0.8750000   0.1250000  -0.6250000), wk =   0.0312500
        k(   88) = (  -0.6250000   0.8750000  -0.1250000), wk =   0.0312500
        k(   89) = (  -0.6250000  -0.8750000   0.1250000), wk =   0.0312500
        k(   90) = (   0.7500000   0.0000000   0.5000000), wk =   0.0312500
        k(   91) = (  -0.5000000   0.7500000   0.0000000), wk =   0.0156250
        k(   92) = (  -0.5000000  -0.7500000   0.0000000), wk =   0.0156250
        k(   93) = (   0.0000000   1.0000000  -0.2500000), wk =   0.0156250
        k(   94) = (   0.2500000   0.0000000  -1.0000000), wk =   0.0156250
        k(   95) = (   0.0000000   1.0000000  -0.5000000), wk =   0.0078125

     Dense  grid:    16889 G-vectors     FFT dimensions: (  36,  36,  36)

     Largest allocated arrays     est. size (Mb)     dimensions
        Kohn-Sham Wavefunctions         0.13 Mb     (   2150,    4)
        NL pseudopotentials             0.52 Mb     (   2150,   16)
        Each V/rho on FFT grid          0.71 Mb     (  46656)
        Each G-vector array             0.13 Mb     (  16889)
        G-vector shells                 0.00 Mb     (    215)
     Largest temporary arrays     est. size (Mb)     dimensions
        Auxiliary wavefunctions         0.52 Mb     (   2150,   16)
        Each subspace H/S matrix        0.00 Mb     (  16,  16)
        Each <psi_i|beta_j> matrix      0.00 Mb     (     16,    4)
        Arrays for rho mixing           5.70 Mb     (  46656,   8)

     Initial potential from superposition of free atoms

     starting charge    7.99993, renormalised to    8.00000
     Starting wfc are    8 atomic wfcs

     total cpu time spent up to now is        3.5 secs

     per-process dynamical memory:    10.7 Mb

     Self-consistent Calculation

     iteration #  1     ecut=   140.00 Ry     beta=0.70
     Davidson diagonalization with overlap
     ethr =  1.00E-02,  avg # of iterations =  2.8

     total cpu time spent up to now is        8.3 secs

     total energy              =     -35.55487836 Ry
     Harris-Foulkes estimate   =     -35.60750943 Ry
     estimated scf accuracy    <       0.09633606 Ry

     iteration #  2     ecut=   140.00 Ry     beta=0.70
     Davidson diagonalization with overlap
     ethr =  1.20E-03,  avg # of iterations =  2.9

     total cpu time spent up to now is       13.6 secs

     total energy              =     -35.58270972 Ry
     Harris-Foulkes estimate   =     -35.58728337 Ry
     estimated scf accuracy    <       0.00875753 Ry

     iteration #  3     ecut=   140.00 Ry     beta=0.70
     Davidson diagonalization with overlap
     ethr =  1.09E-04,  avg # of iterations =  2.7

     total cpu time spent up to now is       19.0 secs

     total energy              =     -35.58605731 Ry
     Harris-Foulkes estimate   =     -35.58654238 Ry
     estimated scf accuracy    <       0.00075175 Ry

     iteration #  4     ecut=   140.00 Ry     beta=0.70
     Davidson diagonalization with overlap
     ethr =  9.40E-06,  avg # of iterations =  3.1

     total cpu time spent up to now is       24.8 secs

     total energy              =     -35.58634657 Ry
     Harris-Foulkes estimate   =     -35.58634898 Ry
     estimated scf accuracy    <       0.00002106 Ry

     iteration #  5     ecut=   140.00 Ry     beta=0.70
     Davidson diagonalization with overlap
     ethr =  2.63E-07,  avg # of iterations =  2.8

     total cpu time spent up to now is       29.7 secs

     total energy              =     -35.58635226 Ry
     Harris-Foulkes estimate   =     -35.58635659 Ry
     estimated scf accuracy    <       0.00000613 Ry

     iteration #  6     ecut=   140.00 Ry     beta=0.70
     Davidson diagonalization with overlap
     ethr =  7.67E-08,  avg # of iterations =  3.1

     total cpu time spent up to now is       35.6 secs

     End of self-consistent calculation

          k = 0.0000 0.0000 0.0000 (  2109 PWs)   bands (ev):

    -8.2405  10.4739  13.6210  15.8848

          k =-0.1250 0.1250-0.1250 (  2124 PWs)   bands (ev):

    -7.8085  10.1149  11.3614  14.0143

          k =-0.2500 0.2500-0.2500 (  2115 PWs)   bands (ev):

    -6.5288   7.0425   9.3870  12.8320

          k =-0.3750 0.3750-0.3750 (  2126 PWs)   bands (ev):

    -4.4936   2.9066   8.7901  12.1321

          k = 0.5000-0.5000 0.5000 (  2120 PWs)   bands (ev):

    -2.6818   0.3632   8.5702  11.9018

          k = 0.0000 0.2500 0.0000 (  2133 PWs)   bands (ev):

    -7.6688   9.3804  11.7053  13.7112

          k =-0.1250 0.3750-0.1250 (  2118 PWs)   bands (ev):

    -6.6719   8.6810   8.8610  11.7075

          k =-0.2500 0.5000-0.2500 (  2125 PWs)   bands (ev):

    -4.8792   4.5420   8.1264  10.8999

          k = 0.6250-0.3750 0.6250 (  2128 PWs)   bands (ev):

    -2.6849   1.1603   7.5627  10.7445

          k = 0.5000-0.2500 0.5000 (  2134 PWs)   bands (ev):

    -3.3667   2.0602   7.3477  11.2307

          k = 0.3750-0.1250 0.3750 (  2133 PWs)   bands (ev):

    -5.5545   5.8221   7.6045  12.1667

          k = 0.2500 0.0000 0.2500 (  2123 PWs)   bands (ev):

    -7.0970   8.2564   9.9861  13.1602

          k = 0.0000 0.5000 0.0000 (  2141 PWs)   bands (ev):

    -5.9747   7.1214   9.2415  10.5469

          k =-0.1250 0.6250-0.1250 (  2122 PWs)   bands (ev):

    -4.4611   6.1579   6.7308   9.0494

          k = 0.7500-0.2500 0.7500 (  2126 PWs)   bands (ev):

    -2.3468   3.0640   5.3427   8.8607

          k = 0.6250-0.1250 0.6250 (  2138 PWs)   bands (ev):

    -1.6949   2.1940   4.5951   9.4336

          k = 0.5000 0.0000 0.5000 (  2135 PWs)   bands (ev):

    -3.7961   4.2332   5.4922  10.5273

          k = 0.0000 0.7500 0.0000 (  2128 PWs)   bands (ev):

    -3.2405   4.1060   7.6088   7.9968

          k = 0.8750-0.1250 0.8750 (  2139 PWs)   bands (ev):

    -1.3600   2.5392   5.7423   7.5564

          k = 0.7500 0.0000 0.7500 (  2141 PWs)   bands (ev):

     0.1062   1.3565   3.9398   8.0700

          k = 0.0000-1.0000 0.0000 (  2100 PWs)   bands (ev):

     0.3140   0.3140   7.1088   7.1088

          k =-0.2500 0.5000 0.0000 (  2127 PWs)   bands (ev):

    -5.4172   7.6450   8.0704   8.4105

          k = 0.6250-0.3750 0.8750 (  2131 PWs)   bands (ev):

    -3.4430   3.9426   7.3014   7.7625

          k = 0.5000-0.2500 0.7500 (  2132 PWs)   bands (ev):

    -1.7163   1.4620   6.4960   8.2449

          k = 0.7500-0.2500 1.0000 (  2120 PWs)   bands (ev):

    -2.7642   4.8150   6.2352   6.4849

          k = 0.6250-0.1250 0.8750 (  2145 PWs)   bands (ev):

    -0.7768   2.8711   4.1674   6.7678

          k = 0.5000 0.0000 0.7500 (  2144 PWs)   bands (ev):

    -1.3308   2.7601   4.1073   7.9230

          k =-0.2500-1.0000 0.0000 (  2150 PWs)   bands (ev):

     0.4531   0.8625   5.8440   6.2024

          k =-0.5000-1.0000 0.0000 (  2148 PWs)   bands (ev):

     0.6209   1.9233   4.0584   5.5016

          k = 0.1250 0.1250-0.1250 (  2124 PWs)   bands (ev):

    -7.8125   9.0949  12.4183  14.3333

          k = 0.2500 0.2500-0.2500 (  2115 PWs)   bands (ev):

    -6.5390   5.7719  10.8096  12.9474

          k = 0.3750 0.3750-0.3750 (  2126 PWs)   bands (ev):

    -4.4625   1.9918   9.8257  12.1130

          k =-0.5000-0.5000 0.5000 (  2120 PWs)   bands (ev):

    -2.1371  -0.9589   9.4982  11.8386

          k = 0.0000 0.0000 0.2500 (  2133 PWs)   bands (ev):

    -7.6647   9.4655  12.1802  12.6189

          k = 0.3750 0.1250-0.1250 (  2118 PWs)   bands (ev):

    -6.6807   6.8941  10.1781  12.7984

          k = 0.1250-0.1250 0.3750 (  2118 PWs)   bands (ev):

    -6.6666   8.4938   8.6227  12.1755

          k = 0.1250 0.1250-0.3750 (  2118 PWs)   bands (ev):

    -6.6693   7.1841  10.6984  11.3000

          k = 0.5000 0.2500-0.2500 (  2125 PWs)   bands (ev):

    -4.8737   3.4207   9.1301  11.4029

          k = 0.2500-0.2500 0.5000 (  2125 PWs)   bands (ev):

    -4.8682   4.4103   8.0854  11.1052

          k = 0.2500 0.2500-0.5000 (  2125 PWs)   bands (ev):

    -4.8586   3.5356   9.3202  10.6802

          k =-0.3750-0.6250 0.6250 (  2128 PWs)   bands (ev):

    -2.3846   0.0131   8.7132  10.5746

          k =-0.6250 0.6250-0.3750 (  2128 PWs)   bands (ev):

    -2.6678   1.1084   8.0494  10.0967

          k =-0.6250-0.6250 0.3750 (  2128 PWs)   bands (ev):

    -2.3771   0.0416   8.3558  10.8115

          k =-0.2500-0.5000 0.5000 (  2134 PWs)   bands (ev):

    -3.2581   1.1162   8.6775  10.6890

          k =-0.5000 0.5000-0.2500 (  2134 PWs)   bands (ev):

    -3.3781   2.1124   8.5076   9.5473

          k =-0.5000-0.5000 0.2500 (  2134 PWs)   bands (ev):

    -3.2642   1.0860   8.0197  11.6482

          k =-0.1250-0.3750 0.3750 (  2133 PWs)   bands (ev):

    -5.5556   4.7618   9.0522  11.6874

          k =-0.3750 0.3750-0.1250 (  2133 PWs)   bands (ev):

    -5.5568   5.9650   9.2909   9.6344

          k =-0.3750-0.3750 0.1250 (  2133 PWs)   bands (ev):

    -5.5690   4.5612   8.5222  13.0594

          k =-0.2500 0.2500 0.0000 (  2123 PWs)   bands (ev):

    -7.0941   9.8932  10.0141  10.7922

          k =-0.2500-0.2500 0.0000 (  2123 PWs)   bands (ev):

    -7.1079   7.4214  10.3075  14.6528

          k = 0.0000 0.0000 0.5000 (  2141 PWs)   bands (ev):

    -5.9572   7.6535   8.8916   9.8415

          k = 0.6250 0.1250-0.1250 (  2122 PWs)   bands (ev):

    -4.4579   4.6606   8.1068   9.4687

          k = 0.1250-0.1250 0.6250 (  2122 PWs)   bands (ev):

    -4.4339   5.8917   7.0347   8.7381

          k = 0.1250 0.1250-0.6250 (  2122 PWs)   bands (ev):

    -4.4300   5.2936   7.3147   9.0782

          k =-0.2500-0.7500 0.7500 (  2126 PWs)   bands (ev):

    -2.2001   1.7253   6.8678   8.6754

          k =-0.7500 0.7500-0.2500 (  2126 PWs)   bands (ev):

    -2.3016   2.7620   6.9902   7.1460

          k =-0.7500-0.7500 0.2500 (  2126 PWs)   bands (ev):

    -2.1805   1.9927   5.9082   9.1269

          k =-0.1250-0.6250 0.6250 (  2138 PWs)   bands (ev):

    -1.4244   0.9781   5.7877   9.2017

          k =-0.6250 0.6250-0.1250 (  2138 PWs)   bands (ev):

    -1.7430   2.2463   5.9920   7.5243

          k =-0.6250-0.6250 0.1250 (  2138 PWs)   bands (ev):

    -1.3606   0.9125   5.0990   9.9743

          k =-0.5000 0.5000 0.0000 (  2135 PWs)   bands (ev):

    -3.8248   5.5666   5.6103   8.4465

          k =-0.5000-0.5000 0.0000 (  2135 PWs)   bands (ev):

    -3.7933   3.4152   5.7193  11.4749

          k = 0.0000 0.0000 0.7500 (  2128 PWs)   bands (ev):

    -3.1979   4.7938   6.2827   8.0938

          k =-0.1250-0.8750 0.8750 (  2139 PWs)   bands (ev):

    -1.2748   2.0448   6.2804   7.5075

          k =-0.8750 0.8750-0.1250 (  2139 PWs)   bands (ev):

    -1.3022   2.7570   6.1159   6.4967

          k =-0.8750-0.8750 0.1250 (  2139 PWs)   bands (ev):

    -1.2564   2.7644   4.7503   7.9218

          k =-0.7500 0.7500 0.0000 (  2141 PWs)   bands (ev):

    -0.2567   2.2833   4.3988   6.5804

          k =-0.7500-0.7500 0.0000 (  2141 PWs)   bands (ev):

     0.8035   0.8832   3.0925   8.5845

          k = 0.0000 0.0000-1.0000 (  2100 PWs)   bands (ev):

    -0.0853   1.1472   5.7917   7.4993

          k = 0.5000 0.2500 0.0000 (  2127 PWs)   bands (ev):

    -5.4281   5.2785   7.9522  11.9310

          k = 0.0000-0.5000-0.2500 (  2127 PWs)   bands (ev):

    -5.4192   6.0711   7.6969  10.9569

          k = 0.2500 0.0000 0.5000 (  2127 PWs)   bands (ev):

    -5.4056   6.3092   7.4717  10.6456

          k =-0.3750-0.6250 0.8750 (  2131 PWs)   bands (ev):

    -3.3862   2.6220   6.6499  10.3589

          k = 0.8750 0.3750 0.6250 (  2131 PWs)   bands (ev):

    -3.3899   2.7303   7.4303   9.2485

          k =-0.8750 0.3750-0.6250 (  2131 PWs)   bands (ev):

    -3.4310   3.8547   5.6889   9.9367

          k =-0.6250 0.8750-0.3750 (  2131 PWs)   bands (ev):

    -3.4103   3.6878   6.1668   9.3624

          k =-0.6250-0.8750 0.3750 (  2131 PWs)   bands (ev):

    -3.3724   2.8757   6.8552   9.5103

          k =-0.2500-0.5000 0.7500 (  2132 PWs)   bands (ev):

    -1.1304   0.0189   6.5419   9.3727

          k = 0.7500 0.2500 0.5000 (  2132 PWs)   bands (ev):

    -1.1470  -0.0176   7.8658   8.0706

          k =-0.7500 0.2500-0.5000 (  2132 PWs)   bands (ev):

    -1.7235   1.5107   5.5259   9.5175

          k =-0.2500-0.7500 1.0000 (  2120 PWs)   bands (ev):

    -2.7060   3.2011   6.3582   8.3018

          k = 1.0000 0.2500 0.7500 (  2120 PWs)   bands (ev):

    -2.7349   3.7542   6.2545   7.7468

          k =-0.7500 1.0000-0.2500 (  2120 PWs)   bands (ev):

    -2.6968   4.3323   5.4550   7.6140

          k =-0.1250-0.6250 0.8750 (  2145 PWs)   bands (ev):

    -0.3251   1.2426   4.9275   7.3627

          k = 0.8750 0.1250 0.6250 (  2145 PWs)   bands (ev):

    -0.4155   1.3060   5.5934   6.7120

          k =-0.8750 0.1250-0.6250 (  2145 PWs)   bands (ev):

    -0.7281   2.6392   3.8755   7.4182

          k =-0.6250 0.8750-0.1250 (  2145 PWs)   bands (ev):

    -0.7213   2.5722   5.1653   5.8619

          k =-0.6250-0.8750 0.1250 (  2145 PWs)   bands (ev):

    -0.3999   1.7236   4.1621   7.5934

          k = 0.7500 0.0000 0.5000 (  2144 PWs)   bands (ev):

    -1.3516   2.5594   4.3464   8.0261

          k =-0.5000 0.7500 0.0000 (  2144 PWs)   bands (ev):

    -1.4877   3.8081   4.4966   6.3571

          k =-0.5000-0.7500 0.0000 (  2144 PWs)   bands (ev):

    -1.1849   1.9334   4.2246   8.6647

          k = 0.0000 1.0000-0.2500 (  2150 PWs)   bands (ev):

     0.6337   0.6337   6.0666   6.0666

          k = 0.2500 0.0000-1.0000 (  2150 PWs)   bands (ev):

     0.1938   1.5887   4.7740   6.5302

          k = 0.0000 1.0000-0.5000 (  2148 PWs)   bands (ev):

     1.0509   1.0509   5.0677   5.0677

!    total energy              =     -35.58635431 Ry
     Harris-Foulkes estimate   =     -35.58635451 Ry
     estimated scf accuracy    <       0.00000048 Ry

     total all-electron energy =      -151.145351 Ry

     The total energy is the sum of the following terms:

     one-electron contribution =       8.45621464 Ry
     hartree contribution      =       1.94140724 Ry
     xc contribution           =      -8.39387188 Ry
     ewald contribution        =     -25.51665092 Ry
     one-center paw contrib.   =     -12.07345339 Ry

     convergence has been achieved in   6 iterations

     Forces acting on atoms (Ry/au):

     atom    1 type  1   force =    -0.00000000   -0.00000000   -0.23742567
     atom    2 type  1   force =     0.00000000    0.00000000    0.23742567

     Total force =     0.335771     Total SCF correction =     0.000309

     Writing output data file diamond.save

     init_run     :      3.38s CPU      3.30s WALL (       1 calls)
     electrons    :     33.84s CPU     32.06s WALL (       1 calls)
     forces       :      0.66s CPU      0.52s WALL (       1 calls)

     Called by init_run:
     wfcinit      :      2.58s CPU      2.47s WALL (       1 calls)
     potinit      :      0.05s CPU      0.05s WALL (       1 calls)

     Called by electrons:
     c_bands      :     28.86s CPU     27.15s WALL (       6 calls)
     sum_band     :      4.42s CPU      4.29s WALL (       6 calls)
     v_of_rho     :      0.07s CPU      0.08s WALL (       7 calls)
     newd         :      0.23s CPU      0.23s WALL (       7 calls)
     mix_rho      :      0.09s CPU      0.10s WALL (       6 calls)

     Called by c_bands:
     init_us_2    :      1.61s CPU      1.72s WALL (    1330 calls)
     cegterg      :     27.14s CPU     24.28s WALL (     570 calls)

     Called by *egterg:
     h_psi        :     22.66s CPU     21.64s WALL (    2318 calls)
     s_psi        :      1.84s CPU      1.14s WALL (    2318 calls)
     g_psi        :      0.14s CPU      0.17s WALL (    1653 calls)
     cdiaghg      :      0.39s CPU      0.46s WALL (    2223 calls)

     Called by h_psi:
     add_vuspsi   :      1.99s CPU      1.18s WALL (    2318 calls)

     General routines
     calbec       :      2.93s CPU      1.75s WALL (    2983 calls)
     fft          :      0.08s CPU      0.07s WALL (      45 calls)
     fftw         :     18.15s CPU     18.76s WALL (   17876 calls)
     davcio       :      0.21s CPU      1.19s WALL (    1900 calls)


     PAW routines
     PAW_pot      :      0.20s CPU      0.20s WALL (       7 calls)
     PAW_ddot     :      0.08s CPU      0.07s WALL (      36 calls)
     PAW_symme    :      0.00s CPU      0.00s WALL (      13 calls)

     PWSCF        :    38.36s CPU        36.54s WALL


   This run was terminated on:  21:43:17  26Mar2012            

=------------------------------------------------------------------------------=
   JOB DONE.
=------------------------------------------------------------------------------=
