
     Program PWSCF v.4.3.2      starts on 26Mar2012 at 21:48:55 

     This program is part of the open-source Quantum ESPRESSO suite
     for quantum simulation of materials; please cite
         "P. Giannozzi et al., J. Phys.:Condens. Matter 21 395502 (2009);
          URL http://www.quantum-espresso.org", 
     in publications or presentations arising from this work. More details at
     http://www.quantum-espresso.org/wiki/index.php/Citing_Quantum-ESPRESSO

     Current dimensions of program PWSCF are:
     Max number of different atomic species (ntypx) = 10
     Max number of k-points (npk) =  40000
     Max angular momentum in pseudopotentials (lmaxx) =  3
     Waiting for input...
     Reading input from stdin

     G-vector sticks info
     --------------------
     sticks:   dense  smooth     PW     G-vecs:    dense   smooth      PW
     Sum         913     913    265                17837    17837    2891



     bravais-lattice index     =            2
     lattice parameter (alat)  =       6.8200  a.u.
     unit-cell volume          =      79.3036 (a.u.)^3
     number of atoms/cell      =            2
     number of atomic types    =            1
     number of electrons       =         8.00
     number of Kohn-Sham states=            4
     kinetic-energy cutoff     =     140.0000  Ry
     charge density cutoff     =     560.0000  Ry
     convergence threshold     =      1.0E-06
     mixing beta               =       0.7000
     number of iterations used =            8  plain     mixing
     Exchange-correlation      =  SLA  PZ   NOGX NOGC ( 1 1 0 0 0)
     EXX-fraction              =        0.00

     celldm(1)=   6.820000  celldm(2)=   0.000000  celldm(3)=   0.000000
     celldm(4)=   0.000000  celldm(5)=   0.000000  celldm(6)=   0.000000

     crystal axes: (cart. coord. in units of alat)
               a(1) = (  -0.500000   0.000000   0.500000 )  
               a(2) = (   0.000000   0.500000   0.500000 )  
               a(3) = (  -0.500000   0.500000   0.000000 )  

     reciprocal axes: (cart. coord. in units 2 pi/alat)
               b(1) = ( -1.000000 -1.000000  1.000000 )  
               b(2) = (  1.000000  1.000000  1.000000 )  
               b(3) = ( -1.000000  1.000000 -1.000000 )  


     PseudoPot. # 1 for  C read from file:
     /home/mullspace/Documents/espresso-4.3.2/pseudo/C.pz-kjpaw.UPF
     MD5 check sum: 414e6e825ae75add557e798061b49a04
     Pseudo is Projector augmented-wave + core cor, Zval =  4.0
     Generated using "atomic" code by A. Dal Corso (espresso distribution)
     Shape of augmentation charge: BESSEL
     Using radial grid of 1073 points,  4 beta functions with: 
                l(1) =   0
                l(2) =   0
                l(3) =   1
                l(4) =   1
     Q(r) pseudized with 0 coefficients 


     atomic species   valence    mass     pseudopotential
        C              4.00    12.01070      C( 1.00)

      8 Sym.Ops. (with inversion)


   Cartesian axes

     site n.     atom                  positions (alat units)
         1           C   tau(   1) = (   0.0000000   0.0000000   0.0500000  )
         2           C   tau(   2) = (   0.2500000   0.2500000   0.2500000  )

     number of k points=    95
                       cart. coord. in units 2pi/alat
        k(    1) = (   0.0000000   0.0000000   0.0000000), wk =   0.0039063
        k(    2) = (  -0.1250000   0.1250000  -0.1250000), wk =   0.0156250
        k(    3) = (  -0.2500000   0.2500000  -0.2500000), wk =   0.0156250
        k(    4) = (  -0.3750000   0.3750000  -0.3750000), wk =   0.0156250
        k(    5) = (   0.5000000  -0.5000000   0.5000000), wk =   0.0078125
        k(    6) = (   0.0000000   0.2500000   0.0000000), wk =   0.0156250
        k(    7) = (  -0.1250000   0.3750000  -0.1250000), wk =   0.0312500
        k(    8) = (  -0.2500000   0.5000000  -0.2500000), wk =   0.0312500
        k(    9) = (   0.6250000  -0.3750000   0.6250000), wk =   0.0312500
        k(   10) = (   0.5000000  -0.2500000   0.5000000), wk =   0.0312500
        k(   11) = (   0.3750000  -0.1250000   0.3750000), wk =   0.0312500
        k(   12) = (   0.2500000   0.0000000   0.2500000), wk =   0.0312500
        k(   13) = (   0.0000000   0.5000000   0.0000000), wk =   0.0156250
        k(   14) = (  -0.1250000   0.6250000  -0.1250000), wk =   0.0312500
        k(   15) = (   0.7500000  -0.2500000   0.7500000), wk =   0.0312500
        k(   16) = (   0.6250000  -0.1250000   0.6250000), wk =   0.0312500
        k(   17) = (   0.5000000   0.0000000   0.5000000), wk =   0.0312500
        k(   18) = (   0.0000000   0.7500000   0.0000000), wk =   0.0156250
        k(   19) = (   0.8750000  -0.1250000   0.8750000), wk =   0.0312500
        k(   20) = (   0.7500000   0.0000000   0.7500000), wk =   0.0312500
        k(   21) = (   0.0000000  -1.0000000   0.0000000), wk =   0.0078125
        k(   22) = (  -0.2500000   0.5000000   0.0000000), wk =   0.0156250
        k(   23) = (   0.6250000  -0.3750000   0.8750000), wk =   0.0312500
        k(   24) = (   0.5000000  -0.2500000   0.7500000), wk =   0.0312500
        k(   25) = (   0.7500000  -0.2500000   1.0000000), wk =   0.0156250
        k(   26) = (   0.6250000  -0.1250000   0.8750000), wk =   0.0312500
        k(   27) = (   0.5000000   0.0000000   0.7500000), wk =   0.0312500
        k(   28) = (  -0.2500000  -1.0000000   0.0000000), wk =   0.0156250
        k(   29) = (  -0.5000000  -1.0000000   0.0000000), wk =   0.0156250
        k(   30) = (  -0.1250000  -0.1250000  -0.1250000), wk =   0.0156250
        k(   31) = (  -0.2500000  -0.2500000  -0.2500000), wk =   0.0156250
        k(   32) = (  -0.3750000  -0.3750000  -0.3750000), wk =   0.0156250
        k(   33) = (   0.5000000   0.5000000   0.5000000), wk =   0.0078125
        k(   34) = (   0.0000000   0.0000000   0.2500000), wk =   0.0078125
        k(   35) = (  -0.1250000  -0.3750000  -0.1250000), wk =   0.0312500
        k(   36) = (   0.1250000  -0.1250000   0.3750000), wk =   0.0156250
        k(   37) = (   0.1250000   0.1250000  -0.3750000), wk =   0.0156250
        k(   38) = (  -0.2500000  -0.5000000  -0.2500000), wk =   0.0312500
        k(   39) = (   0.2500000  -0.2500000   0.5000000), wk =   0.0156250
        k(   40) = (   0.2500000   0.2500000  -0.5000000), wk =   0.0156250
        k(   41) = (   0.6250000   0.3750000   0.6250000), wk =   0.0312500
        k(   42) = (  -0.6250000   0.6250000  -0.3750000), wk =   0.0156250
        k(   43) = (  -0.6250000  -0.6250000   0.3750000), wk =   0.0156250
        k(   44) = (   0.5000000   0.2500000   0.5000000), wk =   0.0312500
        k(   45) = (  -0.5000000   0.5000000  -0.2500000), wk =   0.0156250
        k(   46) = (  -0.5000000  -0.5000000   0.2500000), wk =   0.0156250
        k(   47) = (   0.3750000   0.1250000   0.3750000), wk =   0.0312500
        k(   48) = (  -0.3750000   0.3750000  -0.1250000), wk =   0.0156250
        k(   49) = (  -0.3750000  -0.3750000   0.1250000), wk =   0.0156250
        k(   50) = (  -0.2500000   0.2500000   0.0000000), wk =   0.0078125
        k(   51) = (  -0.2500000  -0.2500000   0.0000000), wk =   0.0078125
        k(   52) = (   0.0000000   0.0000000   0.5000000), wk =   0.0078125
        k(   53) = (  -0.1250000  -0.6250000  -0.1250000), wk =   0.0312500
        k(   54) = (   0.1250000  -0.1250000   0.6250000), wk =   0.0156250
        k(   55) = (   0.1250000   0.1250000  -0.6250000), wk =   0.0156250
        k(   56) = (   0.7500000   0.2500000   0.7500000), wk =   0.0312500
        k(   57) = (  -0.7500000   0.7500000  -0.2500000), wk =   0.0156250
        k(   58) = (  -0.7500000  -0.7500000   0.2500000), wk =   0.0156250
        k(   59) = (   0.6250000   0.1250000   0.6250000), wk =   0.0312500
        k(   60) = (  -0.6250000   0.6250000  -0.1250000), wk =   0.0156250
        k(   61) = (  -0.6250000  -0.6250000   0.1250000), wk =   0.0156250
        k(   62) = (  -0.5000000   0.5000000   0.0000000), wk =   0.0078125
        k(   63) = (  -0.5000000  -0.5000000   0.0000000), wk =   0.0078125
        k(   64) = (   0.0000000   0.0000000   0.7500000), wk =   0.0078125
        k(   65) = (   0.8750000   0.1250000   0.8750000), wk =   0.0312500
        k(   66) = (  -0.8750000   0.8750000  -0.1250000), wk =   0.0156250
        k(   67) = (  -0.8750000  -0.8750000   0.1250000), wk =   0.0156250
        k(   68) = (  -0.7500000   0.7500000   0.0000000), wk =   0.0078125
        k(   69) = (  -0.7500000  -0.7500000   0.0000000), wk =   0.0078125
        k(   70) = (   0.0000000   0.0000000  -1.0000000), wk =   0.0039063
        k(   71) = (   0.0000000  -0.5000000  -0.2500000), wk =   0.0312500
        k(   72) = (   0.2500000   0.0000000   0.5000000), wk =   0.0312500
        k(   73) = (   0.2500000   0.5000000   0.0000000), wk =   0.0156250
        k(   74) = (   0.8750000   0.3750000   0.6250000), wk =   0.0312500
        k(   75) = (  -0.8750000   0.3750000  -0.6250000), wk =   0.0312500
        k(   76) = (  -0.6250000   0.8750000  -0.3750000), wk =   0.0312500
        k(   77) = (  -0.6250000  -0.8750000   0.3750000), wk =   0.0312500
        k(   78) = (  -0.6250000  -0.3750000  -0.8750000), wk =   0.0312500
        k(   79) = (   0.7500000   0.2500000   0.5000000), wk =   0.0156250
        k(   80) = (  -0.7500000   0.2500000  -0.5000000), wk =   0.0156250
        k(   81) = (  -0.5000000  -0.7500000   0.2500000), wk =   0.0312500
        k(   82) = (   1.0000000   0.2500000   0.7500000), wk =   0.0312500
        k(   83) = (  -0.7500000   1.0000000  -0.2500000), wk =   0.0312500
        k(   84) = (  -0.7500000  -0.2500000  -1.0000000), wk =   0.0156250
        k(   85) = (   0.8750000   0.1250000   0.6250000), wk =   0.0312500
        k(   86) = (  -0.8750000   0.1250000  -0.6250000), wk =   0.0312500
        k(   87) = (  -0.6250000   0.8750000  -0.1250000), wk =   0.0312500
        k(   88) = (  -0.6250000  -0.8750000   0.1250000), wk =   0.0312500
        k(   89) = (  -0.6250000  -0.1250000  -0.8750000), wk =   0.0312500
        k(   90) = (   0.7500000   0.0000000   0.5000000), wk =   0.0312500
        k(   91) = (  -0.5000000   0.7500000   0.0000000), wk =   0.0156250
        k(   92) = (  -0.5000000  -0.7500000   0.0000000), wk =   0.0156250
        k(   93) = (   0.0000000   1.0000000  -0.2500000), wk =   0.0156250
        k(   94) = (   0.2500000   0.0000000  -1.0000000), wk =   0.0156250
        k(   95) = (   0.0000000   1.0000000  -0.5000000), wk =   0.0078125

     Dense  grid:    17837 G-vectors     FFT dimensions: (  40,  40,  40)

     Largest allocated arrays     est. size (Mb)     dimensions
        Kohn-Sham Wavefunctions         0.14 Mb     (   2252,    4)
        NL pseudopotentials             0.55 Mb     (   2252,   16)
        Each V/rho on FFT grid          0.98 Mb     (  64000)
        Each G-vector array             0.14 Mb     (  17837)
        G-vector shells                 0.00 Mb     (    222)
     Largest temporary arrays     est. size (Mb)     dimensions
        Auxiliary wavefunctions         0.55 Mb     (   2252,   16)
        Each subspace H/S matrix        0.00 Mb     (  16,  16)
        Each <psi_i|beta_j> matrix      0.00 Mb     (     16,    4)
        Arrays for rho mixing           7.81 Mb     (  64000,   8)

     Initial potential from superposition of free atoms

     starting charge    7.99993, renormalised to    8.00000
     Starting wfc are    8 atomic wfcs

     total cpu time spent up to now is        4.4 secs

     per-process dynamical memory:    12.4 Mb

     Self-consistent Calculation

     iteration #  1     ecut=   140.00 Ry     beta=0.70
     Davidson diagonalization with overlap
     ethr =  1.00E-02,  avg # of iterations =  2.7

     total cpu time spent up to now is       10.3 secs

     total energy              =     -35.55205680 Ry
     Harris-Foulkes estimate   =     -35.59562490 Ry
     estimated scf accuracy    <       0.08171485 Ry

     iteration #  2     ecut=   140.00 Ry     beta=0.70
     Davidson diagonalization with overlap
     ethr =  1.02E-03,  avg # of iterations =  2.9

     total cpu time spent up to now is       17.1 secs

     total energy              =     -35.58158409 Ry
     Harris-Foulkes estimate   =     -35.58663810 Ry
     estimated scf accuracy    <       0.00958644 Ry

     iteration #  3     ecut=   140.00 Ry     beta=0.70
     Davidson diagonalization with overlap
     ethr =  1.20E-04,  avg # of iterations =  2.7

     total cpu time spent up to now is       23.4 secs

     total energy              =     -35.58440020 Ry
     Harris-Foulkes estimate   =     -35.58505446 Ry
     estimated scf accuracy    <       0.00102963 Ry

     iteration #  4     ecut=   140.00 Ry     beta=0.70
     Davidson diagonalization with overlap
     ethr =  1.29E-05,  avg # of iterations =  3.0

     total cpu time spent up to now is       30.4 secs

     total energy              =     -35.58472450 Ry
     Harris-Foulkes estimate   =     -35.58472430 Ry
     estimated scf accuracy    <       0.00001660 Ry

     iteration #  5     ecut=   140.00 Ry     beta=0.70
     Davidson diagonalization with overlap
     ethr =  2.08E-07,  avg # of iterations =  3.7

     total cpu time spent up to now is       38.1 secs

     total energy              =     -35.58474133 Ry
     Harris-Foulkes estimate   =     -35.58475075 Ry
     estimated scf accuracy    <       0.00001453 Ry

     iteration #  6     ecut=   140.00 Ry     beta=0.70
     Davidson diagonalization with overlap
     ethr =  1.82E-07,  avg # of iterations =  1.8

     total cpu time spent up to now is       43.1 secs

     End of self-consistent calculation

          k = 0.0000 0.0000 0.0000 (  2229 PWs)   bands (ev):

    -8.4287   9.8234  12.8997  15.1100

          k =-0.1250 0.1250-0.1250 (  2193 PWs)   bands (ev):

    -8.0090   9.4799  10.7151  13.3047

          k =-0.2500 0.2500-0.2500 (  2208 PWs)   bands (ev):

    -6.7679   6.5210   8.7810  12.1617

          k =-0.3750 0.3750-0.3750 (  2217 PWs)   bands (ev):

    -4.8058   2.5154   8.2060  11.4834

          k = 0.5000-0.5000 0.5000 (  2252 PWs)   bands (ev):

    -3.1098   0.1075   7.9938  11.2597

          k = 0.0000 0.2500 0.0000 (  2193 PWs)   bands (ev):

    -7.8724   8.7531  11.0635  12.9975

          k =-0.1250 0.3750-0.1250 (  2219 PWs)   bands (ev):

    -6.9054   8.1086   8.2653  11.0593

          k =-0.2500 0.5000-0.2500 (  2215 PWs)   bands (ev):

    -5.1725   4.0989   7.5449  10.2862

          k = 0.6250-0.3750 0.6250 (  2225 PWs)   bands (ev):

    -3.0901   0.8594   6.9994  10.1407

          k = 0.5000-0.2500 0.5000 (  2221 PWs)   bands (ev):

    -3.7248   1.7045   6.7950  10.6099

          k = 0.3750-0.1250 0.3750 (  2207 PWs)   bands (ev):

    -5.8222   5.3287   7.0503  11.5110

          k = 0.2500 0.0000 0.2500 (  2201 PWs)   bands (ev):

    -7.3166   7.6709   9.3803  12.4716

          k = 0.0000 0.5000 0.0000 (  2221 PWs)   bands (ev):

    -6.2252   6.5295   8.6889   9.9266

          k =-0.1250 0.6250-0.1250 (  2219 PWs)   bands (ev):

    -4.7607   5.5754   6.2528   8.4983

          k = 0.7500-0.2500 0.7500 (  2218 PWs)   bands (ev):

    -2.7346   2.6657   4.8360   8.3247

          k = 0.6250-0.1250 0.6250 (  2229 PWs)   bands (ev):

    -2.1217   1.8379   4.1196   8.8774

          k = 0.5000 0.0000 0.5000 (  2217 PWs)   bands (ev):

    -4.1164   3.7311   5.0392   9.9293

          k = 0.0000 0.7500 0.0000 (  2217 PWs)   bands (ev):

    -3.5698   3.5590   7.1138   7.4900

          k = 0.8750-0.1250 0.8750 (  2219 PWs)   bands (ev):

    -1.7599   2.0439   5.3117   7.0666

          k = 0.7500 0.0000 0.7500 (  2219 PWs)   bands (ev):

    -0.3797   0.9083   3.5981   7.5619

          k = 0.0000-1.0000 0.0000 (  2200 PWs)   bands (ev):

    -0.1233  -0.1233   6.6343   6.6343

          k =-0.2500 0.5000 0.0000 (  2216 PWs)   bands (ev):

    -5.6910   7.1283   7.5039   7.8267

          k = 0.6250-0.3750 0.8750 (  2220 PWs)   bands (ev):

    -3.7907   3.5231   6.7363   7.2502

          k = 0.5000-0.2500 0.7500 (  2226 PWs)   bands (ev):

    -2.1683   1.1598   5.9709   7.7131

          k = 0.7500-0.2500 1.0000 (  2221 PWs)   bands (ev):

    -3.1255   4.2639   5.7779   6.0256

          k = 0.6250-0.1250 0.8750 (  2227 PWs)   bands (ev):

    -1.2374   2.4168   3.7778   6.3000

          k = 0.5000 0.0000 0.7500 (  2228 PWs)   bands (ev):

    -1.7471   2.2823   3.7167   7.4216

          k =-0.2500-1.0000 0.0000 (  2224 PWs)   bands (ev):

    -0.0255   0.4256   5.4050   5.7766

          k =-0.5000-1.0000 0.0000 (  2208 PWs)   bands (ev):

     0.0967   1.4483   3.6946   5.1206

          k =-0.1250-0.1250-0.1250 (  2193 PWs)   bands (ev):

    -8.0117   8.4798  11.7405  13.6183

          k =-0.2500-0.2500-0.2500 (  2208 PWs)   bands (ev):

    -6.7714   5.2430  10.1836  12.2769

          k =-0.3750-0.3750-0.3750 (  2217 PWs)   bands (ev):

    -4.7524   1.5651   9.2282  11.4671

          k = 0.5000 0.5000 0.5000 (  2252 PWs)   bands (ev):

    -2.5385  -1.2577   8.9098  11.2004

          k = 0.0000 0.0000 0.2500 (  2193 PWs)   bands (ev):

    -7.8686   8.8617  11.4626  11.9668

          k =-0.1250-0.3750-0.1250 (  2219 PWs)   bands (ev):

    -6.9096   6.3206   9.5906  12.1147

          k = 0.1250-0.1250 0.3750 (  2219 PWs)   bands (ev):

    -6.8993   7.9150   8.0531  11.4972

          k = 0.1250 0.1250-0.3750 (  2219 PWs)   bands (ev):

    -6.9002   6.6372  10.0253  10.6917

          k =-0.2500-0.5000-0.2500 (  2215 PWs)   bands (ev):

    -5.1507   2.9417   8.5664  10.7667

          k = 0.2500-0.2500 0.5000 (  2215 PWs)   bands (ev):

    -5.1600   3.9581   7.5344  10.4632

          k = 0.2500 0.2500-0.5000 (  2215 PWs)   bands (ev):

    -5.1399   3.0761   8.7030  10.0902

          k = 0.6250 0.3750 0.6250 (  2225 PWs)   bands (ev):

    -2.7464  -0.3524   8.1503   9.9713

          k =-0.6250 0.6250-0.3750 (  2225 PWs)   bands (ev):

    -3.0735   0.8042   7.4968   9.4917

          k =-0.6250-0.6250 0.3750 (  2225 PWs)   bands (ev):

    -2.7447  -0.3126   7.7811  10.2143

          k = 0.5000 0.2500 0.5000 (  2221 PWs)   bands (ev):

    -3.5887   0.7174   8.1103  10.0848

          k =-0.5000 0.5000-0.2500 (  2221 PWs)   bands (ev):

    -3.7405   1.7609   7.9350   8.9634

          k =-0.5000-0.5000 0.2500 (  2221 PWs)   bands (ev):

    -3.5864   0.6742   7.4711  11.0200

          k = 0.3750 0.1250 0.3750 (  2207 PWs)   bands (ev):

    -5.8170   4.2629   8.4750  11.0483

          k =-0.3750 0.3750-0.1250 (  2207 PWs)   bands (ev):

    -5.8283   5.4817   8.6861   9.0491

          k =-0.3750-0.3750 0.1250 (  2207 PWs)   bands (ev):

    -5.8249   4.0396   7.9811  12.3812

          k =-0.2500 0.2500 0.0000 (  2201 PWs)   bands (ev):

    -7.3164   9.3027   9.3800  10.1686

          k =-0.2500-0.2500 0.0000 (  2201 PWs)   bands (ev):

    -7.3243   6.8252   9.7240  13.9178

          k = 0.0000 0.0000 0.5000 (  2221 PWs)   bands (ev):

    -6.2091   7.1237   8.2278   9.2831

          k =-0.1250-0.6250-0.1250 (  2219 PWs)   bands (ev):

    -4.7479   4.1118   7.5930   8.9041

          k = 0.1250-0.1250 0.6250 (  2219 PWs)   bands (ev):

    -4.7331   5.3460   6.5275   8.1902

          k = 0.1250 0.1250-0.6250 (  2219 PWs)   bands (ev):

    -4.7260   4.7881   6.7387   8.5444

          k = 0.7500 0.2500 0.7500 (  2218 PWs)   bands (ev):

    -2.5554   1.2656   6.3782   8.1445

          k =-0.7500 0.7500-0.2500 (  2218 PWs)   bands (ev):

    -2.6917   2.3529   6.4826   6.6429

          k =-0.7500-0.7500 0.2500 (  2218 PWs)   bands (ev):

    -2.5477   1.5682   5.3951   8.5902

          k = 0.6250 0.1250 0.6250 (  2229 PWs)   bands (ev):

    -1.8288   0.5792   5.3219   8.6514

          k =-0.6250 0.6250-0.1250 (  2229 PWs)   bands (ev):

    -2.1835   1.9023   5.5180   6.9940

          k =-0.6250-0.6250 0.1250 (  2229 PWs)   bands (ev):

    -1.7403   0.4855   4.6385   9.4079

          k =-0.5000 0.5000 0.0000 (  2217 PWs)   bands (ev):

    -4.1590   5.1181   5.1193   7.8776

          k =-0.5000-0.5000 0.0000 (  2217 PWs)   bands (ev):

    -4.0950   2.8790   5.2828  10.8555

          k = 0.0000 0.0000 0.7500 (  2217 PWs)   bands (ev):

    -3.5329   4.2444   5.8042   7.5926

          k = 0.8750 0.1250 0.8750 (  2219 PWs)   bands (ev):

    -1.6567   1.5331   5.8463   7.0202

          k =-0.8750 0.8750-0.1250 (  2219 PWs)   bands (ev):

    -1.7134   2.2801   5.6427   6.0625

          k =-0.8750-0.8750 0.1250 (  2219 PWs)   bands (ev):

    -1.6588   2.2706   4.3292   7.4259

          k =-0.7500 0.7500 0.0000 (  2219 PWs)   bands (ev):

    -0.7715   1.8762   4.0554   6.0884

          k =-0.7500-0.7500 0.0000 (  2219 PWs)   bands (ev):

     0.3036   0.4336   2.7648   8.0661

          k = 0.0000 0.0000-1.0000 (  2200 PWs)   bands (ev):

    -0.5730   0.7687   5.3308   7.0173

          k = 0.0000-0.5000-0.2500 (  2216 PWs)   bands (ev):

    -5.6866   5.5159   7.1770  10.3408

          k = 0.2500 0.0000 0.5000 (  2216 PWs)   bands (ev):

    -5.6742   5.7766   6.9328  10.0294

          k = 0.2500 0.5000 0.0000 (  2216 PWs)   bands (ev):

    -5.6882   4.7118   7.4472  11.2895

          k = 0.8750 0.3750 0.6250 (  2220 PWs)   bands (ev):

    -3.7155   2.2648   6.9200   8.6855

          k =-0.8750 0.3750-0.6250 (  2220 PWs)   bands (ev):

    -3.7706   3.4220   5.1693   9.3721

          k =-0.6250 0.8750-0.3750 (  2220 PWs)   bands (ev):

    -3.7512   3.2488   5.6642   8.7914

          k =-0.6250-0.8750 0.3750 (  2220 PWs)   bands (ev):

    -3.7016   2.4295   6.3205   8.9560

          k =-0.6250-0.3750-0.8750 (  2220 PWs)   bands (ev):

    -3.7010   2.1354   6.1566   9.7816

          k = 0.7500 0.2500 0.5000 (  2226 PWs)   bands (ev):

    -1.5769  -0.3655   7.3542   7.5314

          k =-0.7500 0.2500-0.5000 (  2226 PWs)   bands (ev):

    -2.1679   1.2078   4.9977   8.9750

          k =-0.5000-0.7500 0.2500 (  2226 PWs)   bands (ev):

    -1.5553  -0.3283   6.0212   8.8338

          k = 1.0000 0.2500 0.7500 (  2221 PWs)   bands (ev):

    -3.0836   3.2151   5.7954   7.2626

          k =-0.7500 1.0000-0.2500 (  2221 PWs)   bands (ev):

    -3.0514   3.7946   5.0008   7.1356

          k =-0.7500-0.2500-1.0000 (  2221 PWs)   bands (ev):

    -3.0406   2.6496   5.9034   7.8094

          k = 0.8750 0.1250 0.6250 (  2227 PWs)   bands (ev):

    -0.8437   0.8403   5.1757   6.2478

          k =-0.8750 0.1250-0.6250 (  2227 PWs)   bands (ev):

    -1.1749   2.1424   3.5133   6.9509

          k =-0.6250 0.8750-0.1250 (  2227 PWs)   bands (ev):

    -1.1886   2.1501   4.7221   5.4328

          k =-0.6250-0.8750 0.1250 (  2227 PWs)   bands (ev):

    -0.8397   1.2744   3.7421   7.1225

          k =-0.6250-0.1250-0.8750 (  2227 PWs)   bands (ev):

    -0.7369   0.7580   4.5083   6.9010

          k = 0.7500 0.0000 0.5000 (  2228 PWs)   bands (ev):

    -1.7617   2.0695   3.9610   7.5255

          k =-0.5000 0.7500 0.0000 (  2228 PWs)   bands (ev):

    -1.9244   3.3454   4.1148   5.8679

          k =-0.5000-0.7500 0.0000 (  2228 PWs)   bands (ev):

    -1.5606   1.4087   3.8386   8.1545

          k = 0.0000 1.0000-0.2500 (  2224 PWs)   bands (ev):

     0.1748   0.1748   5.6358   5.6358

          k = 0.2500 0.0000-1.0000 (  2224 PWs)   bands (ev):

    -0.3102   1.1810   4.3485   6.0954

          k = 0.0000 1.0000-0.5000 (  2208 PWs)   bands (ev):

     0.5562   0.5562   4.6900   4.6900

!    total energy              =     -35.58474274 Ry
     Harris-Foulkes estimate   =     -35.58474275 Ry
     estimated scf accuracy    <       0.00000001 Ry

     total all-electron energy =      -151.143739 Ry

     The total energy is the sum of the following terms:

     one-electron contribution =       8.00803690 Ry
     hartree contribution      =       1.98354360 Ry
     xc contribution           =      -8.32584491 Ry
     ewald contribution        =     -25.17992092 Ry
     one-center paw contrib.   =     -12.07055741 Ry

     convergence has been achieved in   6 iterations

     Forces acting on atoms (Ry/au):

     atom    1 type  1   force =    -0.00000000   -0.00000000   -0.22101846
     atom    2 type  1   force =     0.00000000    0.00000000    0.22101846

     Total force =     0.312567     Total SCF correction =     0.000051

     Writing output data file diamond.save

     init_run     :      4.27s CPU      4.21s WALL (       1 calls)
     electrons    :     40.53s CPU     38.69s WALL (       1 calls)
     forces       :      0.68s CPU      0.54s WALL (       1 calls)

     Called by init_run:
     wfcinit      :      3.44s CPU      3.32s WALL (       1 calls)
     potinit      :      0.06s CPU      0.06s WALL (       1 calls)

     Called by electrons:
     c_bands      :     34.39s CPU     32.58s WALL (       6 calls)
     sum_band     :      5.53s CPU      5.40s WALL (       6 calls)
     v_of_rho     :      0.11s CPU      0.11s WALL (       7 calls)
     newd         :      0.25s CPU      0.26s WALL (       7 calls)
     mix_rho      :      0.10s CPU      0.10s WALL (       6 calls)

     Called by c_bands:
     init_us_2    :      1.57s CPU      1.68s WALL (    1330 calls)
     cegterg      :     32.65s CPU     29.68s WALL (     570 calls)

     Called by *egterg:
     h_psi        :     29.10s CPU     27.90s WALL (    2263 calls)
     s_psi        :      1.85s CPU      1.15s WALL (    2263 calls)
     g_psi        :      0.14s CPU      0.17s WALL (    1598 calls)
     cdiaghg      :      0.43s CPU      0.43s WALL (    2168 calls)

     Called by h_psi:
     add_vuspsi   :      2.16s CPU      1.18s WALL (    2263 calls)

     General routines
     calbec       :      2.94s CPU      1.76s WALL (    2928 calls)
     fft          :      0.09s CPU      0.11s WALL (      45 calls)
     fftw         :     24.53s CPU     25.28s WALL (   17430 calls)
     davcio       :      0.23s CPU      1.31s WALL (    1900 calls)


     PAW routines
     PAW_pot      :      0.20s CPU      0.20s WALL (       7 calls)
     PAW_ddot     :      0.06s CPU      0.07s WALL (      36 calls)
     PAW_symme    :      0.00s CPU      0.00s WALL (      13 calls)

     PWSCF        :    45.96s CPU        44.06s WALL


   This run was terminated on:  21:49:39  26Mar2012            

=------------------------------------------------------------------------------=
   JOB DONE.
=------------------------------------------------------------------------------=
