
     Program PWSCF v.4.3.2      starts on 26Mar2012 at 21:54: 9 

     This program is part of the open-source Quantum ESPRESSO suite
     for quantum simulation of materials; please cite
         "P. Giannozzi et al., J. Phys.:Condens. Matter 21 395502 (2009);
          URL http://www.quantum-espresso.org", 
     in publications or presentations arising from this work. More details at
     http://www.quantum-espresso.org/wiki/index.php/Citing_Quantum-ESPRESSO

     Current dimensions of program PWSCF are:
     Max number of different atomic species (ntypx) = 10
     Max number of k-points (npk) =  40000
     Max angular momentum in pseudopotentials (lmaxx) =  3
     Waiting for input...
     Reading input from stdin

     G-vector sticks info
     --------------------
     sticks:   dense  smooth     PW     G-vecs:    dense   smooth      PW
     Sum         925     925    283                18197    18197    3071



     bravais-lattice index     =            2
     lattice parameter (alat)  =       6.8900  a.u.
     unit-cell volume          =      81.7707 (a.u.)^3
     number of atoms/cell      =            2
     number of atomic types    =            1
     number of electrons       =         8.00
     number of Kohn-Sham states=            4
     kinetic-energy cutoff     =     140.0000  Ry
     charge density cutoff     =     560.0000  Ry
     convergence threshold     =      1.0E-06
     mixing beta               =       0.7000
     number of iterations used =            8  plain     mixing
     Exchange-correlation      =  SLA  PZ   NOGX NOGC ( 1 1 0 0 0)
     EXX-fraction              =        0.00

     celldm(1)=   6.890000  celldm(2)=   0.000000  celldm(3)=   0.000000
     celldm(4)=   0.000000  celldm(5)=   0.000000  celldm(6)=   0.000000

     crystal axes: (cart. coord. in units of alat)
               a(1) = (  -0.500000   0.000000   0.500000 )  
               a(2) = (   0.000000   0.500000   0.500000 )  
               a(3) = (  -0.500000   0.500000   0.000000 )  

     reciprocal axes: (cart. coord. in units 2 pi/alat)
               b(1) = ( -1.000000 -1.000000  1.000000 )  
               b(2) = (  1.000000  1.000000  1.000000 )  
               b(3) = ( -1.000000  1.000000 -1.000000 )  


     PseudoPot. # 1 for  C read from file:
     /home/mullspace/Documents/espresso-4.3.2/pseudo/C.pz-kjpaw.UPF
     MD5 check sum: 414e6e825ae75add557e798061b49a04
     Pseudo is Projector augmented-wave + core cor, Zval =  4.0
     Generated using "atomic" code by A. Dal Corso (espresso distribution)
     Shape of augmentation charge: BESSEL
     Using radial grid of 1073 points,  4 beta functions with: 
                l(1) =   0
                l(2) =   0
                l(3) =   1
                l(4) =   1
     Q(r) pseudized with 0 coefficients 


     atomic species   valence    mass     pseudopotential
        C              4.00    12.01070      C( 1.00)

      8 Sym.Ops. (with inversion)


   Cartesian axes

     site n.     atom                  positions (alat units)
         1           C   tau(   1) = (   0.0000000   0.0000000   0.0500000  )
         2           C   tau(   2) = (   0.2500000   0.2500000   0.2500000  )

     number of k points=    95
                       cart. coord. in units 2pi/alat
        k(    1) = (   0.0000000   0.0000000   0.0000000), wk =   0.0039063
        k(    2) = (  -0.1250000   0.1250000  -0.1250000), wk =   0.0156250
        k(    3) = (  -0.2500000   0.2500000  -0.2500000), wk =   0.0156250
        k(    4) = (  -0.3750000   0.3750000  -0.3750000), wk =   0.0156250
        k(    5) = (   0.5000000  -0.5000000   0.5000000), wk =   0.0078125
        k(    6) = (   0.0000000   0.2500000   0.0000000), wk =   0.0156250
        k(    7) = (  -0.1250000   0.3750000  -0.1250000), wk =   0.0312500
        k(    8) = (  -0.2500000   0.5000000  -0.2500000), wk =   0.0312500
        k(    9) = (   0.6250000  -0.3750000   0.6250000), wk =   0.0312500
        k(   10) = (   0.5000000  -0.2500000   0.5000000), wk =   0.0312500
        k(   11) = (   0.3750000  -0.1250000   0.3750000), wk =   0.0312500
        k(   12) = (   0.2500000   0.0000000   0.2500000), wk =   0.0312500
        k(   13) = (   0.0000000   0.5000000   0.0000000), wk =   0.0156250
        k(   14) = (  -0.1250000   0.6250000  -0.1250000), wk =   0.0312500
        k(   15) = (   0.7500000  -0.2500000   0.7500000), wk =   0.0312500
        k(   16) = (   0.6250000  -0.1250000   0.6250000), wk =   0.0312500
        k(   17) = (   0.5000000   0.0000000   0.5000000), wk =   0.0312500
        k(   18) = (   0.0000000   0.7500000   0.0000000), wk =   0.0156250
        k(   19) = (   0.8750000  -0.1250000   0.8750000), wk =   0.0312500
        k(   20) = (   0.7500000   0.0000000   0.7500000), wk =   0.0312500
        k(   21) = (   0.0000000  -1.0000000   0.0000000), wk =   0.0078125
        k(   22) = (  -0.2500000   0.5000000   0.0000000), wk =   0.0156250
        k(   23) = (   0.6250000  -0.3750000   0.8750000), wk =   0.0312500
        k(   24) = (   0.5000000  -0.2500000   0.7500000), wk =   0.0312500
        k(   25) = (   0.7500000  -0.2500000   1.0000000), wk =   0.0156250
        k(   26) = (   0.6250000  -0.1250000   0.8750000), wk =   0.0312500
        k(   27) = (   0.5000000   0.0000000   0.7500000), wk =   0.0312500
        k(   28) = (  -0.2500000  -1.0000000   0.0000000), wk =   0.0156250
        k(   29) = (  -0.5000000  -1.0000000   0.0000000), wk =   0.0156250
        k(   30) = (  -0.1250000  -0.1250000  -0.1250000), wk =   0.0156250
        k(   31) = (  -0.2500000  -0.2500000  -0.2500000), wk =   0.0156250
        k(   32) = (  -0.3750000  -0.3750000  -0.3750000), wk =   0.0156250
        k(   33) = (   0.5000000   0.5000000   0.5000000), wk =   0.0078125
        k(   34) = (   0.0000000   0.0000000   0.2500000), wk =   0.0078125
        k(   35) = (  -0.1250000  -0.3750000  -0.1250000), wk =   0.0312500
        k(   36) = (   0.1250000  -0.1250000   0.3750000), wk =   0.0156250
        k(   37) = (   0.1250000   0.1250000  -0.3750000), wk =   0.0156250
        k(   38) = (  -0.2500000  -0.5000000  -0.2500000), wk =   0.0312500
        k(   39) = (   0.2500000  -0.2500000   0.5000000), wk =   0.0156250
        k(   40) = (   0.2500000   0.2500000  -0.5000000), wk =   0.0156250
        k(   41) = (   0.6250000   0.3750000   0.6250000), wk =   0.0312500
        k(   42) = (  -0.6250000   0.6250000  -0.3750000), wk =   0.0156250
        k(   43) = (  -0.6250000  -0.6250000   0.3750000), wk =   0.0156250
        k(   44) = (   0.5000000   0.2500000   0.5000000), wk =   0.0312500
        k(   45) = (  -0.5000000   0.5000000  -0.2500000), wk =   0.0156250
        k(   46) = (  -0.5000000  -0.5000000   0.2500000), wk =   0.0156250
        k(   47) = (   0.3750000   0.1250000   0.3750000), wk =   0.0312500
        k(   48) = (  -0.3750000   0.3750000  -0.1250000), wk =   0.0156250
        k(   49) = (  -0.3750000  -0.3750000   0.1250000), wk =   0.0156250
        k(   50) = (  -0.2500000   0.2500000   0.0000000), wk =   0.0078125
        k(   51) = (  -0.2500000  -0.2500000   0.0000000), wk =   0.0078125
        k(   52) = (   0.0000000   0.0000000   0.5000000), wk =   0.0078125
        k(   53) = (  -0.1250000  -0.6250000  -0.1250000), wk =   0.0312500
        k(   54) = (   0.1250000  -0.1250000   0.6250000), wk =   0.0156250
        k(   55) = (   0.1250000   0.1250000  -0.6250000), wk =   0.0156250
        k(   56) = (   0.7500000   0.2500000   0.7500000), wk =   0.0312500
        k(   57) = (  -0.7500000   0.7500000  -0.2500000), wk =   0.0156250
        k(   58) = (  -0.7500000  -0.7500000   0.2500000), wk =   0.0156250
        k(   59) = (   0.6250000   0.1250000   0.6250000), wk =   0.0312500
        k(   60) = (  -0.6250000   0.6250000  -0.1250000), wk =   0.0156250
        k(   61) = (  -0.6250000  -0.6250000   0.1250000), wk =   0.0156250
        k(   62) = (  -0.5000000   0.5000000   0.0000000), wk =   0.0078125
        k(   63) = (  -0.5000000  -0.5000000   0.0000000), wk =   0.0078125
        k(   64) = (   0.0000000   0.0000000   0.7500000), wk =   0.0078125
        k(   65) = (   0.8750000   0.1250000   0.8750000), wk =   0.0312500
        k(   66) = (  -0.8750000   0.8750000  -0.1250000), wk =   0.0156250
        k(   67) = (  -0.8750000  -0.8750000   0.1250000), wk =   0.0156250
        k(   68) = (  -0.7500000   0.7500000   0.0000000), wk =   0.0078125
        k(   69) = (  -0.7500000  -0.7500000   0.0000000), wk =   0.0078125
        k(   70) = (   0.0000000   0.0000000  -1.0000000), wk =   0.0039063
        k(   71) = (   0.0000000  -0.5000000  -0.2500000), wk =   0.0312500
        k(   72) = (   0.2500000   0.0000000   0.5000000), wk =   0.0312500
        k(   73) = (   0.2500000   0.5000000   0.0000000), wk =   0.0156250
        k(   74) = (   0.8750000   0.3750000   0.6250000), wk =   0.0312500
        k(   75) = (  -0.8750000   0.3750000  -0.6250000), wk =   0.0312500
        k(   76) = (  -0.6250000   0.8750000  -0.3750000), wk =   0.0312500
        k(   77) = (  -0.6250000  -0.8750000   0.3750000), wk =   0.0312500
        k(   78) = (  -0.6250000  -0.3750000  -0.8750000), wk =   0.0312500
        k(   79) = (   0.7500000   0.2500000   0.5000000), wk =   0.0156250
        k(   80) = (  -0.7500000   0.2500000  -0.5000000), wk =   0.0156250
        k(   81) = (  -0.5000000  -0.7500000   0.2500000), wk =   0.0312500
        k(   82) = (   1.0000000   0.2500000   0.7500000), wk =   0.0312500
        k(   83) = (  -0.7500000   1.0000000  -0.2500000), wk =   0.0312500
        k(   84) = (  -0.7500000  -0.2500000  -1.0000000), wk =   0.0156250
        k(   85) = (   0.8750000   0.1250000   0.6250000), wk =   0.0312500
        k(   86) = (  -0.8750000   0.1250000  -0.6250000), wk =   0.0312500
        k(   87) = (  -0.6250000   0.8750000  -0.1250000), wk =   0.0312500
        k(   88) = (  -0.6250000  -0.8750000   0.1250000), wk =   0.0312500
        k(   89) = (  -0.6250000  -0.1250000  -0.8750000), wk =   0.0312500
        k(   90) = (   0.7500000   0.0000000   0.5000000), wk =   0.0312500
        k(   91) = (  -0.5000000   0.7500000   0.0000000), wk =   0.0156250
        k(   92) = (  -0.5000000  -0.7500000   0.0000000), wk =   0.0156250
        k(   93) = (   0.0000000   1.0000000  -0.2500000), wk =   0.0156250
        k(   94) = (   0.2500000   0.0000000  -1.0000000), wk =   0.0156250
        k(   95) = (   0.0000000   1.0000000  -0.5000000), wk =   0.0078125

     Dense  grid:    18197 G-vectors     FFT dimensions: (  40,  40,  40)

     Largest allocated arrays     est. size (Mb)     dimensions
        Kohn-Sham Wavefunctions         0.14 Mb     (   2303,    4)
        NL pseudopotentials             0.56 Mb     (   2303,   16)
        Each V/rho on FFT grid          0.98 Mb     (  64000)
        Each G-vector array             0.14 Mb     (  18197)
        G-vector shells                 0.00 Mb     (    226)
     Largest temporary arrays     est. size (Mb)     dimensions
        Auxiliary wavefunctions         0.56 Mb     (   2303,   16)
        Each subspace H/S matrix        0.00 Mb     (  16,  16)
        Each <psi_i|beta_j> matrix      0.00 Mb     (     16,    4)
        Arrays for rho mixing           7.81 Mb     (  64000,   8)

     Initial potential from superposition of free atoms

     starting charge    7.99993, renormalised to    8.00000
     Starting wfc are    8 atomic wfcs

     total cpu time spent up to now is        4.4 secs

     per-process dynamical memory:    12.5 Mb

     Self-consistent Calculation

     iteration #  1     ecut=   140.00 Ry     beta=0.70
     Davidson diagonalization with overlap
     ethr =  1.00E-02,  avg # of iterations =  2.6

     Threshold (ethr) on eigenvalues was too large:
     Diagonalizing with lowered threshold

     Davidson diagonalization with overlap
     ethr =  9.20E-04,  avg # of iterations =  2.9

     total cpu time spent up to now is       17.0 secs

     total energy              =     -35.57013566 Ry
     Harris-Foulkes estimate   =     -35.62997289 Ry
     estimated scf accuracy    <       0.11184998 Ry

     iteration #  2     ecut=   140.00 Ry     beta=0.70
     Davidson diagonalization with overlap
     ethr =  1.40E-03,  avg # of iterations =  1.0

     total cpu time spent up to now is       21.8 secs

     total energy              =     -35.57287952 Ry
     Harris-Foulkes estimate   =     -35.57541978 Ry
     estimated scf accuracy    <       0.00529450 Ry

     iteration #  3     ecut=   140.00 Ry     beta=0.70
     Davidson diagonalization with overlap
     ethr =  6.62E-05,  avg # of iterations =  3.2

     total cpu time spent up to now is       30.4 secs

     total energy              =     -35.58063737 Ry
     Harris-Foulkes estimate   =     -35.58231977 Ry
     estimated scf accuracy    <       0.00270617 Ry

     iteration #  4     ecut=   140.00 Ry     beta=0.70
     Davidson diagonalization with overlap
     ethr =  3.38E-05,  avg # of iterations =  3.1

     total cpu time spent up to now is       37.4 secs

     total energy              =     -35.58102406 Ry
     Harris-Foulkes estimate   =     -35.58127980 Ry
     estimated scf accuracy    <       0.00042809 Ry

     iteration #  5     ecut=   140.00 Ry     beta=0.70
     Davidson diagonalization with overlap
     ethr =  5.35E-06,  avg # of iterations =  2.7

     total cpu time spent up to now is       43.7 secs

     End of self-consistent calculation

          k = 0.0000 0.0000 0.0000 (  2277 PWs)   bands (ev):

    -8.5645   9.3446  12.3666  14.5356

          k =-0.1250 0.1250-0.1250 (  2286 PWs)   bands (ev):

    -8.1543   9.0126  10.2363  12.7790

          k =-0.2500 0.2500-0.2500 (  2277 PWs)   bands (ev):

    -6.9425   6.1355   8.3351  11.6657

          k =-0.3750 0.3750-0.3750 (  2283 PWs)   bands (ev):

    -5.0358   2.2280   7.7763  11.0036

          k = 0.5000-0.5000 0.5000 (  2276 PWs)   bands (ev):

    -3.4233  -0.0815   7.5698  10.7849

          k = 0.0000 0.2500 0.0000 (  2277 PWs)   bands (ev):

    -8.0200   8.2905  10.5891  12.4679

          k =-0.1250 0.3750-0.1250 (  2267 PWs)   bands (ev):

    -7.0757   7.6775   7.8337  10.5796

          k =-0.2500 0.5000-0.2500 (  2275 PWs)   bands (ev):

    -5.3881   3.7720   7.1167   9.8323

          k = 0.6250-0.3750 0.6250 (  2298 PWs)   bands (ev):

    -3.3883   0.6379   6.5847   9.6941

          k = 0.5000-0.2500 0.5000 (  2290 PWs)   bands (ev):

    -3.9890   1.4432   6.3882  10.1507

          k = 0.3750-0.1250 0.3750 (  2290 PWs)   bands (ev):

    -6.0184   4.9634   6.6426  11.0262

          k = 0.2500 0.0000 0.2500 (  2285 PWs)   bands (ev):

    -7.4764   7.2386   8.9322  11.9623

          k = 0.0000 0.5000 0.0000 (  2293 PWs)   bands (ev):

    -6.4082   6.0914   8.2808   9.4679

          k =-0.1250 0.6250-0.1250 (  2292 PWs)   bands (ev):

    -4.9809   5.1440   5.9008   8.0913

          k = 0.7500-0.2500 0.7500 (  2302 PWs)   bands (ev):

    -3.0209   2.3694   4.4656   7.9285

          k = 0.6250-0.1250 0.6250 (  2293 PWs)   bands (ev):

    -2.4362   1.5722   3.7723   8.4664

          k = 0.5000 0.0000 0.5000 (  2281 PWs)   bands (ev):

    -4.3523   3.3593   4.7066   9.4874

          k = 0.0000 0.7500 0.0000 (  2289 PWs)   bands (ev):

    -3.8122   3.1545   6.7486   7.1154

          k = 0.8750-0.1250 0.8750 (  2291 PWs)   bands (ev):

    -2.0551   1.6777   4.9948   6.7050

          k = 0.7500 0.0000 0.7500 (  2303 PWs)   bands (ev):

    -0.7372   0.5769   3.3458   7.1867

          k = 0.0000-1.0000 0.0000 (  2272 PWs)   bands (ev):

    -0.4463  -0.4463   6.2842   6.2842

          k =-0.2500 0.5000 0.0000 (  2295 PWs)   bands (ev):

    -5.8918   6.7476   7.0744   7.4059

          k = 0.6250-0.3750 0.8750 (  2292 PWs)   bands (ev):

    -4.0473   3.2134   6.3202   6.8723

          k = 0.5000-0.2500 0.7500 (  2286 PWs)   bands (ev):

    -2.5000   0.9351   5.5844   7.3207

          k = 0.7500-0.2500 1.0000 (  2285 PWs)   bands (ev):

    -3.3920   3.8561   5.4417   5.6867

          k = 0.6250-0.1250 0.8750 (  2283 PWs)   bands (ev):

    -1.5769   2.0767   3.4950   5.9552

          k = 0.5000 0.0000 0.7500 (  2284 PWs)   bands (ev):

    -2.0549   1.9286   3.4310   7.0514

          k =-0.2500-1.0000 0.0000 (  2284 PWs)   bands (ev):

    -0.3788   0.1028   5.0815   5.4625

          k =-0.5000-1.0000 0.0000 (  2268 PWs)   bands (ev):

    -0.2888   1.0980   3.4264   4.8383

          k =-0.1250-0.1250-0.1250 (  2286 PWs)   bands (ev):

    -8.1559   8.0261  11.2392  13.0881

          k =-0.2500-0.2500-0.2500 (  2277 PWs)   bands (ev):

    -6.9407   4.8521   9.7214  11.7800

          k =-0.3750-0.3750-0.3750 (  2283 PWs)   bands (ev):

    -4.9653   1.2505   8.7876  10.9889

          k = 0.5000 0.5000 0.5000 (  2276 PWs)   bands (ev):

    -2.8327  -1.4788   8.4761  10.7281

          k = 0.0000 0.0000 0.2500 (  2277 PWs)   bands (ev):

    -8.0164   8.4171  10.9313  11.4832

          k =-0.1250-0.3750-0.1250 (  2267 PWs)   bands (ev):

    -7.0762   5.8967   9.1565  11.6085

          k = 0.1250-0.1250 0.3750 (  2267 PWs)   bands (ev):

    -7.0690   7.4857   7.6339  10.9956

          k = 0.1250 0.1250-0.3750 (  2267 PWs)   bands (ev):

    -7.0684   6.2333   9.5280  10.2410

          k =-0.2500-0.5000-0.2500 (  2275 PWs)   bands (ev):

    -5.3537   2.5876   8.1507  10.2958

          k = 0.2500-0.2500 0.5000 (  2275 PWs)   bands (ev):

    -5.3745   3.6244   7.1290   9.9880

          k = 0.2500 0.2500-0.5000 (  2275 PWs)   bands (ev):

    -5.3462   2.7367   8.2478   9.6533

          k = 0.6250 0.3750 0.6250 (  2298 PWs)   bands (ev):

    -3.0135  -0.6212   7.7354   9.5249

          k =-0.6250 0.6250-0.3750 (  2298 PWs)   bands (ev):

    -3.3723   0.5805   7.0903   9.0439

          k =-0.6250-0.6250 0.3750 (  2298 PWs)   bands (ev):

    -3.0161  -0.5731   7.3577   9.7721

          k = 0.5000 0.2500 0.5000 (  2290 PWs)   bands (ev):

    -3.8323   0.4237   7.6919   9.6380

          k =-0.5000 0.5000-0.2500 (  2290 PWs)   bands (ev):

    -4.0081   1.5029   7.5138   8.5313

          k =-0.5000-0.5000 0.2500 (  2290 PWs)   bands (ev):

    -3.8236   0.3702   7.0670  10.5549

          k = 0.3750 0.1250 0.3750 (  2290 PWs)   bands (ev):

    -6.0084   3.8942   8.0486  10.5758

          k =-0.3750 0.3750-0.1250 (  2290 PWs)   bands (ev):

    -6.0275   5.1249   8.2412   8.6157

          k =-0.3750-0.3750 0.1250 (  2290 PWs)   bands (ev):

    -6.0119   3.6537   7.5821  11.8789

          k =-0.2500 0.2500 0.0000 (  2285 PWs)   bands (ev):

    -7.4781   8.8667   8.9134   9.7051

          k =-0.2500-0.2500 0.0000 (  2285 PWs)   bands (ev):

    -7.4815   6.3848   9.2925  13.3733

          k = 0.0000 0.0000 0.5000 (  2293 PWs)   bands (ev):

    -6.3932   6.7339   7.7363   8.8696

          k =-0.1250-0.6250-0.1250 (  2292 PWs)   bands (ev):

    -4.9606   3.7057   7.2138   8.4865

          k = 0.1250-0.1250 0.6250 (  2292 PWs)   bands (ev):

    -4.9530   4.9416   6.1545   7.7859

          k = 0.1250 0.1250-0.6250 (  2292 PWs)   bands (ev):

    -4.9436   4.4128   6.3161   8.1493

          k = 0.7500 0.2500 0.7500 (  2302 PWs)   bands (ev):

    -2.8175   0.9258   6.0179   7.7522

          k =-0.7500 0.7500-0.2500 (  2302 PWs)   bands (ev):

    -2.9802   2.0511   6.1093   6.2718

          k =-0.7500-0.7500 0.2500 (  2302 PWs)   bands (ev):

    -2.8188   1.2538   5.0188   8.1930

          k = 0.6250 0.1250 0.6250 (  2293 PWs)   bands (ev):

    -2.1275   0.2844   4.9794   8.2449

          k =-0.6250 0.6250-0.1250 (  2293 PWs)   bands (ev):

    -2.5081   1.6476   5.1688   6.6039

          k =-0.6250-0.6250 0.1250 (  2293 PWs)   bands (ev):

    -2.0206   0.1690   4.3016   8.9887

          k =-0.5000 0.5000 0.0000 (  2281 PWs)   bands (ev):

    -4.4055   4.7548   4.7890   7.4591

          k =-0.5000-0.5000 0.0000 (  2281 PWs)   bands (ev):

    -4.3165   2.4828   4.9614  10.3968

          k = 0.0000 0.0000 0.7500 (  2289 PWs)   bands (ev):

    -3.7801   3.8386   5.4524   7.2218

          k = 0.8750 0.1250 0.8750 (  2291 PWs)   bands (ev):

    -1.9385   1.1556   5.5254   6.6605

          k =-0.8750 0.8750-0.1250 (  2291 PWs)   bands (ev):

    -2.0182   1.9292   5.2949   5.7413

          k =-0.8750-0.8750 0.1250 (  2291 PWs)   bands (ev):

    -1.9570   1.9062   4.0201   7.0591

          k =-0.7500 0.7500 0.0000 (  2303 PWs)   bands (ev):

    -1.1496   1.5745   3.8013   5.7268

          k =-0.7500-0.7500 0.0000 (  2303 PWs)   bands (ev):

    -0.0654   0.1026   2.5234   7.6826

          k = 0.0000 0.0000-1.0000 (  2272 PWs)   bands (ev):

    -0.9329   0.4886   4.9922   6.6609

          k = 0.0000-0.5000-0.2500 (  2295 PWs)   bands (ev):

    -5.8825   5.1048   6.7936   9.8854

          k = 0.2500 0.0000 0.5000 (  2295 PWs)   bands (ev):

    -5.8711   5.3819   6.5356   9.5742

          k = 0.2500 0.5000 0.0000 (  2295 PWs)   bands (ev):

    -5.8784   4.2928   7.0744  10.8143

          k = 0.8750 0.3750 0.6250 (  2292 PWs)   bands (ev):

    -3.9552   1.9207   6.5437   8.2700

          k =-0.8750 0.3750-0.6250 (  2292 PWs)   bands (ev):

    -4.0210   3.1004   4.7893   8.9544

          k =-0.6250 0.8750-0.3750 (  2292 PWs)   bands (ev):

    -4.0027   2.9242   5.2950   8.3697

          k =-0.6250-0.8750 0.3750 (  2292 PWs)   bands (ev):

    -3.9442   2.0997   5.9270   8.5462

          k =-0.6250-0.3750-0.8750 (  2292 PWs)   bands (ev):

    -3.9324   1.7750   5.7942   9.3541

          k = 0.7500 0.2500 0.5000 (  2286 PWs)   bands (ev):

    -1.8926  -0.6238   6.9769   7.1336

          k =-0.7500 0.2500-0.5000 (  2286 PWs)   bands (ev):

    -2.4939   0.9819   4.6102   8.5735

          k =-0.5000-0.7500 0.2500 (  2286 PWs)   bands (ev):

    -1.8676  -0.5863   5.6387   8.4348

          k = 1.0000 0.2500 0.7500 (  2285 PWs)   bands (ev):

    -3.3405   2.8166   5.4574   6.9045

          k =-0.7500 1.0000-0.2500 (  2285 PWs)   bands (ev):

    -3.3133   3.3971   4.6678   6.7818

          k =-0.7500-0.2500-1.0000 (  2285 PWs)   bands (ev):

    -3.2869   2.2426   5.5682   7.4445

          k = 0.8750 0.1250 0.6250 (  2283 PWs)   bands (ev):

    -1.1602   0.4966   4.8679   5.9058

          k =-0.8750 0.1250-0.6250 (  2283 PWs)   bands (ev):

    -1.5040   1.7728   3.2493   6.6054

          k =-0.6250 0.8750-0.1250 (  2283 PWs)   bands (ev):

    -1.5336   1.8367   4.3971   5.1173

          k =-0.6250-0.8750 0.1250 (  2283 PWs)   bands (ev):

    -1.1650   0.9405   3.4366   6.7741

          k =-0.6250-0.1250-0.8750 (  2283 PWs)   bands (ev):

    -1.0415   0.4003   4.2009   6.5595

          k = 0.7500 0.0000 0.5000 (  2284 PWs)   bands (ev):

    -2.0646   1.7072   3.6783   7.1559

          k =-0.5000 0.7500 0.0000 (  2284 PWs)   bands (ev):

    -2.2468   3.0014   3.8349   5.5091

          k =-0.5000-0.7500 0.0000 (  2284 PWs)   bands (ev):

    -1.8377   1.0214   3.5550   7.7769

          k = 0.0000 1.0000-0.2500 (  2284 PWs)   bands (ev):

    -0.1642  -0.1642   5.3183   5.3183

          k = 0.2500 0.0000-1.0000 (  2284 PWs)   bands (ev):

    -0.6818   0.8785   4.0366   5.7740

          k = 0.0000 1.0000-0.5000 (  2268 PWs)   bands (ev):

     0.1920   0.1920   4.4108   4.4108

!    total energy              =     -35.58110836 Ry
     Harris-Foulkes estimate   =     -35.58110838 Ry
     estimated scf accuracy    <       0.00000039 Ry

     total all-electron energy =      -151.140105 Ry

     The total energy is the sum of the following terms:

     one-electron contribution =       7.66874822 Ry
     hartree contribution      =       2.01767427 Ry
     xc contribution           =      -8.27494240 Ry
     ewald contribution        =     -24.92410169 Ry
     one-center paw contrib.   =     -12.06848677 Ry

     convergence has been achieved in   5 iterations

     Forces acting on atoms (Ry/au):

     atom    1 type  1   force =     0.00000000    0.00000000   -0.20981864
     atom    2 type  1   force =     0.00000000    0.00000000    0.20981864

     Total force =     0.296728     Total SCF correction =     0.000071

     Writing output data file diamond.save

     init_run     :      4.31s CPU      4.21s WALL (       1 calls)
     electrons    :     41.33s CPU     39.23s WALL (       1 calls)
     forces       :      0.71s CPU      0.57s WALL (       1 calls)

     Called by init_run:
     wfcinit      :      3.50s CPU      3.36s WALL (       1 calls)
     potinit      :      0.06s CPU      0.06s WALL (       1 calls)

     Called by electrons:
     c_bands      :     34.98s CPU     32.85s WALL (       6 calls)
     sum_band     :      5.88s CPU      5.75s WALL (       6 calls)
     v_of_rho     :      0.09s CPU      0.09s WALL (       6 calls)
     newd         :      0.20s CPU      0.21s WALL (       6 calls)
     mix_rho      :      0.06s CPU      0.07s WALL (       6 calls)

     Called by c_bands:
     init_us_2    :      1.48s CPU      1.72s WALL (    1330 calls)
     cegterg      :     33.31s CPU     30.27s WALL (     570 calls)

     Called by *egterg:
     h_psi        :     29.73s CPU     28.53s WALL (    2148 calls)
     s_psi        :      1.91s CPU      1.17s WALL (    2148 calls)
     g_psi        :      0.17s CPU      0.17s WALL (    1483 calls)
     cdiaghg      :      0.28s CPU      0.40s WALL (    1958 calls)

     Called by h_psi:
     add_vuspsi   :      2.06s CPU      1.20s WALL (    2148 calls)

     General routines
     calbec       :      3.09s CPU      1.77s WALL (    2813 calls)
     fft          :      0.09s CPU      0.10s WALL (      42 calls)
     fftw         :     25.45s CPU     26.21s WALL (   17296 calls)
     davcio       :      0.22s CPU      0.94s WALL (    1900 calls)


     PAW routines
     PAW_pot      :      0.17s CPU      0.17s WALL (       6 calls)
     PAW_ddot     :      0.04s CPU      0.05s WALL (      22 calls)
     PAW_symme    :      0.00s CPU      0.00s WALL (      12 calls)

     PWSCF        :    46.85s CPU        44.66s WALL


   This run was terminated on:  21:54:54  26Mar2012            

=------------------------------------------------------------------------------=
   JOB DONE.
=------------------------------------------------------------------------------=
