
     Program PWSCF v.4.3.2      starts on 26Mar2012 at 21:40:16 

     This program is part of the open-source Quantum ESPRESSO suite
     for quantum simulation of materials; please cite
         "P. Giannozzi et al., J. Phys.:Condens. Matter 21 395502 (2009);
          URL http://www.quantum-espresso.org", 
     in publications or presentations arising from this work. More details at
     http://www.quantum-espresso.org/wiki/index.php/Citing_Quantum-ESPRESSO

     Current dimensions of program PWSCF are:
     Max number of different atomic species (ntypx) = 10
     Max number of k-points (npk) =  40000
     Max angular momentum in pseudopotentials (lmaxx) =  3
     Waiting for input...
     Reading input from stdin
     warning: symmetry operation #  5 not allowed.   fractional translation:
       0.2000000  0.2000000  0.3000000  in crystal coordinates
     warning: symmetry operation #  6 not allowed.   fractional translation:
       0.2000000  0.2000000  0.3000000  in crystal coordinates
     warning: symmetry operation # 25 not allowed.   fractional translation:
       0.2000000  0.2000000  0.3000000  in crystal coordinates
     warning: symmetry operation # 26 not allowed.   fractional translation:
       0.2000000  0.2000000  0.3000000  in crystal coordinates

     G-vector sticks info
     --------------------
     sticks:   dense  smooth     PW     G-vecs:    dense   smooth      PW
     Sum         859     859    253                16625    16625    2741



     bravais-lattice index     =            2
     lattice parameter (alat)  =       6.6900  a.u.
     unit-cell volume          =      74.8546 (a.u.)^3
     number of atoms/cell      =            2
     number of atomic types    =            1
     number of electrons       =         8.00
     number of Kohn-Sham states=            4
     kinetic-energy cutoff     =     140.0000  Ry
     charge density cutoff     =     560.0000  Ry
     convergence threshold     =      1.0E-06
     mixing beta               =       0.7000
     number of iterations used =            8  plain     mixing
     Exchange-correlation      =  SLA  PZ   NOGX NOGC ( 1 1 0 0 0)
     EXX-fraction              =        0.00

     celldm(1)=   6.690000  celldm(2)=   0.000000  celldm(3)=   0.000000
     celldm(4)=   0.000000  celldm(5)=   0.000000  celldm(6)=   0.000000

     crystal axes: (cart. coord. in units of alat)
               a(1) = (  -0.500000   0.000000   0.500000 )  
               a(2) = (   0.000000   0.500000   0.500000 )  
               a(3) = (  -0.500000   0.500000   0.000000 )  

     reciprocal axes: (cart. coord. in units 2 pi/alat)
               b(1) = ( -1.000000 -1.000000  1.000000 )  
               b(2) = (  1.000000  1.000000  1.000000 )  
               b(3) = ( -1.000000  1.000000 -1.000000 )  


     PseudoPot. # 1 for  C read from file:
     /home/mullspace/Documents/espresso-4.3.2/pseudo/C.pz-kjpaw.UPF
     MD5 check sum: 414e6e825ae75add557e798061b49a04
     Pseudo is Projector augmented-wave + core cor, Zval =  4.0
     Generated using "atomic" code by A. Dal Corso (espresso distribution)
     Shape of augmentation charge: BESSEL
     Using radial grid of 1073 points,  4 beta functions with: 
                l(1) =   0
                l(2) =   0
                l(3) =   1
                l(4) =   1
     Q(r) pseudized with 0 coefficients 


     atomic species   valence    mass     pseudopotential
        C              4.00    12.01070      C( 1.00)

      4 Sym.Ops. (no inversion)


   Cartesian axes

     site n.     atom                  positions (alat units)
         1           C   tau(   1) = (   0.0000000   0.0000000   0.0500000  )
         2           C   tau(   2) = (   0.2500000   0.2500000   0.2500000  )

     number of k points=    95
                       cart. coord. in units 2pi/alat
        k(    1) = (   0.0000000   0.0000000   0.0000000), wk =   0.0039063
        k(    2) = (  -0.1250000   0.1250000  -0.1250000), wk =   0.0156250
        k(    3) = (  -0.2500000   0.2500000  -0.2500000), wk =   0.0156250
        k(    4) = (  -0.3750000   0.3750000  -0.3750000), wk =   0.0156250
        k(    5) = (   0.5000000  -0.5000000   0.5000000), wk =   0.0078125
        k(    6) = (   0.0000000   0.2500000   0.0000000), wk =   0.0156250
        k(    7) = (  -0.1250000   0.3750000  -0.1250000), wk =   0.0312500
        k(    8) = (  -0.2500000   0.5000000  -0.2500000), wk =   0.0312500
        k(    9) = (   0.6250000  -0.3750000   0.6250000), wk =   0.0312500
        k(   10) = (   0.5000000  -0.2500000   0.5000000), wk =   0.0312500
        k(   11) = (   0.3750000  -0.1250000   0.3750000), wk =   0.0312500
        k(   12) = (   0.2500000   0.0000000   0.2500000), wk =   0.0312500
        k(   13) = (   0.0000000   0.5000000   0.0000000), wk =   0.0156250
        k(   14) = (  -0.1250000   0.6250000  -0.1250000), wk =   0.0312500
        k(   15) = (   0.7500000  -0.2500000   0.7500000), wk =   0.0312500
        k(   16) = (   0.6250000  -0.1250000   0.6250000), wk =   0.0312500
        k(   17) = (   0.5000000   0.0000000   0.5000000), wk =   0.0312500
        k(   18) = (   0.0000000   0.7500000   0.0000000), wk =   0.0156250
        k(   19) = (   0.8750000  -0.1250000   0.8750000), wk =   0.0312500
        k(   20) = (   0.7500000   0.0000000   0.7500000), wk =   0.0312500
        k(   21) = (   0.0000000  -1.0000000   0.0000000), wk =   0.0078125
        k(   22) = (  -0.2500000   0.5000000   0.0000000), wk =   0.0156250
        k(   23) = (   0.6250000  -0.3750000   0.8750000), wk =   0.0312500
        k(   24) = (   0.5000000  -0.2500000   0.7500000), wk =   0.0312500
        k(   25) = (   0.7500000  -0.2500000   1.0000000), wk =   0.0156250
        k(   26) = (   0.6250000  -0.1250000   0.8750000), wk =   0.0312500
        k(   27) = (   0.5000000   0.0000000   0.7500000), wk =   0.0312500
        k(   28) = (  -0.2500000  -1.0000000   0.0000000), wk =   0.0156250
        k(   29) = (  -0.5000000  -1.0000000   0.0000000), wk =   0.0156250
        k(   30) = (   0.1250000   0.1250000  -0.1250000), wk =   0.0156250
        k(   31) = (   0.2500000   0.2500000  -0.2500000), wk =   0.0156250
        k(   32) = (   0.3750000   0.3750000  -0.3750000), wk =   0.0156250
        k(   33) = (  -0.5000000  -0.5000000   0.5000000), wk =   0.0078125
        k(   34) = (   0.0000000   0.0000000   0.2500000), wk =   0.0078125
        k(   35) = (   0.3750000   0.1250000  -0.1250000), wk =   0.0312500
        k(   36) = (   0.1250000  -0.1250000   0.3750000), wk =   0.0156250
        k(   37) = (   0.1250000   0.1250000  -0.3750000), wk =   0.0156250
        k(   38) = (   0.5000000   0.2500000  -0.2500000), wk =   0.0312500
        k(   39) = (   0.2500000  -0.2500000   0.5000000), wk =   0.0156250
        k(   40) = (   0.2500000   0.2500000  -0.5000000), wk =   0.0156250
        k(   41) = (  -0.3750000  -0.6250000   0.6250000), wk =   0.0312500
        k(   42) = (  -0.6250000   0.6250000  -0.3750000), wk =   0.0156250
        k(   43) = (  -0.6250000  -0.6250000   0.3750000), wk =   0.0156250
        k(   44) = (  -0.2500000  -0.5000000   0.5000000), wk =   0.0312500
        k(   45) = (  -0.5000000   0.5000000  -0.2500000), wk =   0.0156250
        k(   46) = (  -0.5000000  -0.5000000   0.2500000), wk =   0.0156250
        k(   47) = (  -0.1250000  -0.3750000   0.3750000), wk =   0.0312500
        k(   48) = (  -0.3750000   0.3750000  -0.1250000), wk =   0.0156250
        k(   49) = (  -0.3750000  -0.3750000   0.1250000), wk =   0.0156250
        k(   50) = (  -0.2500000   0.2500000   0.0000000), wk =   0.0078125
        k(   51) = (  -0.2500000  -0.2500000   0.0000000), wk =   0.0078125
        k(   52) = (   0.0000000   0.0000000   0.5000000), wk =   0.0078125
        k(   53) = (   0.6250000   0.1250000  -0.1250000), wk =   0.0312500
        k(   54) = (   0.1250000  -0.1250000   0.6250000), wk =   0.0156250
        k(   55) = (   0.1250000   0.1250000  -0.6250000), wk =   0.0156250
        k(   56) = (  -0.2500000  -0.7500000   0.7500000), wk =   0.0312500
        k(   57) = (  -0.7500000   0.7500000  -0.2500000), wk =   0.0156250
        k(   58) = (  -0.7500000  -0.7500000   0.2500000), wk =   0.0156250
        k(   59) = (  -0.1250000  -0.6250000   0.6250000), wk =   0.0312500
        k(   60) = (  -0.6250000   0.6250000  -0.1250000), wk =   0.0156250
        k(   61) = (  -0.6250000  -0.6250000   0.1250000), wk =   0.0156250
        k(   62) = (  -0.5000000   0.5000000   0.0000000), wk =   0.0078125
        k(   63) = (  -0.5000000  -0.5000000   0.0000000), wk =   0.0078125
        k(   64) = (   0.0000000   0.0000000   0.7500000), wk =   0.0078125
        k(   65) = (  -0.1250000  -0.8750000   0.8750000), wk =   0.0312500
        k(   66) = (  -0.8750000   0.8750000  -0.1250000), wk =   0.0156250
        k(   67) = (  -0.8750000  -0.8750000   0.1250000), wk =   0.0156250
        k(   68) = (  -0.7500000   0.7500000   0.0000000), wk =   0.0078125
        k(   69) = (  -0.7500000  -0.7500000   0.0000000), wk =   0.0078125
        k(   70) = (   0.0000000   0.0000000  -1.0000000), wk =   0.0039063
        k(   71) = (   0.5000000   0.2500000   0.0000000), wk =   0.0156250
        k(   72) = (   0.0000000  -0.5000000  -0.2500000), wk =   0.0312500
        k(   73) = (   0.2500000   0.0000000   0.5000000), wk =   0.0312500
        k(   74) = (  -0.3750000  -0.6250000   0.8750000), wk =   0.0312500
        k(   75) = (   0.8750000   0.3750000   0.6250000), wk =   0.0312500
        k(   76) = (  -0.8750000   0.3750000  -0.6250000), wk =   0.0312500
        k(   77) = (  -0.6250000   0.8750000  -0.3750000), wk =   0.0312500
        k(   78) = (  -0.6250000  -0.8750000   0.3750000), wk =   0.0312500
        k(   79) = (  -0.2500000  -0.5000000   0.7500000), wk =   0.0312500
        k(   80) = (   0.7500000   0.2500000   0.5000000), wk =   0.0156250
        k(   81) = (  -0.7500000   0.2500000  -0.5000000), wk =   0.0156250
        k(   82) = (  -0.2500000  -0.7500000   1.0000000), wk =   0.0156250
        k(   83) = (   1.0000000   0.2500000   0.7500000), wk =   0.0312500
        k(   84) = (  -0.7500000   1.0000000  -0.2500000), wk =   0.0312500
        k(   85) = (  -0.1250000  -0.6250000   0.8750000), wk =   0.0312500
        k(   86) = (   0.8750000   0.1250000   0.6250000), wk =   0.0312500
        k(   87) = (  -0.8750000   0.1250000  -0.6250000), wk =   0.0312500
        k(   88) = (  -0.6250000   0.8750000  -0.1250000), wk =   0.0312500
        k(   89) = (  -0.6250000  -0.8750000   0.1250000), wk =   0.0312500
        k(   90) = (   0.7500000   0.0000000   0.5000000), wk =   0.0312500
        k(   91) = (  -0.5000000   0.7500000   0.0000000), wk =   0.0156250
        k(   92) = (  -0.5000000  -0.7500000   0.0000000), wk =   0.0156250
        k(   93) = (   0.0000000   1.0000000  -0.2500000), wk =   0.0156250
        k(   94) = (   0.2500000   0.0000000  -1.0000000), wk =   0.0156250
        k(   95) = (   0.0000000   1.0000000  -0.5000000), wk =   0.0078125

     Dense  grid:    16625 G-vectors     FFT dimensions: (  36,  36,  36)

     Largest allocated arrays     est. size (Mb)     dimensions
        Kohn-Sham Wavefunctions         0.13 Mb     (   2120,    4)
        NL pseudopotentials             0.52 Mb     (   2120,   16)
        Each V/rho on FFT grid          0.71 Mb     (  46656)
        Each G-vector array             0.13 Mb     (  16625)
        G-vector shells                 0.00 Mb     (    213)
     Largest temporary arrays     est. size (Mb)     dimensions
        Auxiliary wavefunctions         0.52 Mb     (   2120,   16)
        Each subspace H/S matrix        0.00 Mb     (  16,  16)
        Each <psi_i|beta_j> matrix      0.00 Mb     (     16,    4)
        Arrays for rho mixing           5.70 Mb     (  46656,   8)

     Initial potential from superposition of free atoms

     starting charge    7.99993, renormalised to    8.00000
     Starting wfc are    8 atomic wfcs

     total cpu time spent up to now is        3.5 secs

     per-process dynamical memory:    10.6 Mb

     Self-consistent Calculation

     iteration #  1     ecut=   140.00 Ry     beta=0.70
     Davidson diagonalization with overlap
     ethr =  1.00E-02,  avg # of iterations =  2.9

     total cpu time spent up to now is        8.2 secs

     total energy              =     -35.55492312 Ry
     Harris-Foulkes estimate   =     -35.61178642 Ry
     estimated scf accuracy    <       0.10316381 Ry

     iteration #  2     ecut=   140.00 Ry     beta=0.70
     Davidson diagonalization with overlap
     ethr =  1.29E-03,  avg # of iterations =  2.8

     total cpu time spent up to now is       13.4 secs

     total energy              =     -35.58151614 Ry
     Harris-Foulkes estimate   =     -35.58608113 Ry
     estimated scf accuracy    <       0.00873048 Ry

     iteration #  3     ecut=   140.00 Ry     beta=0.70
     Davidson diagonalization with overlap
     ethr =  1.09E-04,  avg # of iterations =  2.7

     total cpu time spent up to now is       18.5 secs

     total energy              =     -35.58558296 Ry
     Harris-Foulkes estimate   =     -35.58611884 Ry
     estimated scf accuracy    <       0.00083417 Ry

     iteration #  4     ecut=   140.00 Ry     beta=0.70
     Davidson diagonalization with overlap
     ethr =  1.04E-05,  avg # of iterations =  3.1

     total cpu time spent up to now is       24.2 secs

     total energy              =     -35.58587174 Ry
     Harris-Foulkes estimate   =     -35.58587847 Ry
     estimated scf accuracy    <       0.00002784 Ry

     iteration #  5     ecut=   140.00 Ry     beta=0.70
     Davidson diagonalization with overlap
     ethr =  3.48E-07,  avg # of iterations =  2.6

     total cpu time spent up to now is       28.8 secs

     total energy              =     -35.58587799 Ry
     Harris-Foulkes estimate   =     -35.58588273 Ry
     estimated scf accuracy    <       0.00000666 Ry

     iteration #  6     ecut=   140.00 Ry     beta=0.70
     Davidson diagonalization with overlap
     ethr =  8.33E-08,  avg # of iterations =  3.2

     total cpu time spent up to now is       34.5 secs

     End of self-consistent calculation

          k = 0.0000 0.0000 0.0000 (  2085 PWs)   bands (ev):

    -8.1534  10.7730  13.9524  16.2407

          k =-0.1250 0.1250-0.1250 (  2091 PWs)   bands (ev):

    -7.7158  10.4068  11.6580  14.3402

          k =-0.2500 0.2500-0.2500 (  2091 PWs)   bands (ev):

    -6.4187   7.2820   9.6655  13.1399

          k =-0.3750 0.3750-0.3750 (  2093 PWs)   bands (ev):

    -4.3505   3.0871   9.0587  12.4302

          k = 0.5000-0.5000 0.5000 (  2060 PWs)   bands (ev):

    -2.4842   0.4803   8.8352  12.1968

          k = 0.0000 0.2500 0.0000 (  2093 PWs)   bands (ev):

    -7.5746   9.6684  12.0000  14.0387

          k =-0.1250 0.3750-0.1250 (  2083 PWs)   bands (ev):

    -6.5643   8.9409   9.1373  12.0052

          k =-0.2500 0.5000-0.2500 (  2102 PWs)   bands (ev):

    -4.7445   4.7459   8.3936  11.1818

          k = 0.6250-0.3750 0.6250 (  2092 PWs)   bands (ev):

    -2.4989   1.2989   7.8216  11.0218

          k = 0.5000-0.2500 0.5000 (  2098 PWs)   bands (ev):

    -3.2026   2.2244   7.6017  11.5159

          k = 0.3750-0.1250 0.3750 (  2086 PWs)   bands (ev):

    -5.4314   6.0486   7.8593  12.4679

          k = 0.2500 0.0000 0.2500 (  2079 PWs)   bands (ev):

    -6.9956   8.5250  10.2642  13.4766

          k = 0.0000 0.5000 0.0000 (  2085 PWs)   bands (ev):

    -5.8593   7.3924   9.4953  10.8321

          k =-0.1250 0.6250-0.1250 (  2095 PWs)   bands (ev):

    -4.3235   6.4248   6.9509   9.3026

          k = 0.7500-0.2500 0.7500 (  2101 PWs)   bands (ev):

    -2.1690   3.2460   5.5768   9.1070

          k = 0.6250-0.1250 0.6250 (  2092 PWs)   bands (ev):

    -1.4990   2.3564   4.8149   9.6890

          k = 0.5000 0.0000 0.5000 (  2099 PWs)   bands (ev):

    -3.6492   4.4631   5.7013  10.8021

          k = 0.0000 0.7500 0.0000 (  2104 PWs)   bands (ev):

    -3.0893   4.3568   7.8362   8.2296

          k = 0.8750-0.1250 0.8750 (  2095 PWs)   bands (ev):

    -1.1767   2.7662   5.9406   7.7814

          k = 0.7500 0.0000 0.7500 (  2097 PWs)   bands (ev):

     0.3299   1.5619   4.0966   8.3035

          k = 0.0000-1.0000 0.0000 (  2100 PWs)   bands (ev):

     0.5144   0.5144   7.3268   7.3268

          k =-0.2500 0.5000 0.0000 (  2078 PWs)   bands (ev):

    -5.2914   7.8830   8.3257   8.6829

          k = 0.6250-0.3750 0.8750 (  2088 PWs)   bands (ev):

    -3.2837   4.1355   7.5614   7.9979

          k = 0.5000-0.2500 0.7500 (  2092 PWs)   bands (ev):

    -1.5080   1.5999   6.7375   8.4894

          k = 0.7500-0.2500 1.0000 (  2101 PWs)   bands (ev):

    -2.5987   5.0677   6.4461   6.6959

          k = 0.6250-0.1250 0.8750 (  2110 PWs)   bands (ev):

    -0.5652   3.0771   4.3488   6.9831

          k = 0.5000 0.0000 0.7500 (  2095 PWs)   bands (ev):

    -1.1401   2.9787   4.2879   8.1536

          k =-0.2500-1.0000 0.0000 (  2110 PWs)   bands (ev):

     0.6726   1.0628   6.0459   6.3982

          k =-0.5000-1.0000 0.0000 (  2120 PWs)   bands (ev):

     0.8621   2.1416   4.2253   5.6763

          k = 0.1250 0.1250-0.1250 (  2091 PWs)   bands (ev):

    -7.7204   9.3773  12.7295  14.6614

          k = 0.2500 0.2500-0.2500 (  2091 PWs)   bands (ev):

    -6.4319   6.0144  11.0973  13.2553

          k = 0.3750 0.3750-0.3750 (  2093 PWs)   bands (ev):

    -4.3293   2.1877  10.1004  12.4096

          k =-0.5000-0.5000 0.5000 (  2060 PWs)   bands (ev):

    -1.9518  -0.8226   9.7687  12.1317

          k = 0.0000 0.0000 0.2500 (  2093 PWs)   bands (ev):

    -7.5705   9.7430  12.5094  12.9181

          k = 0.3750 0.1250-0.1250 (  2083 PWs)   bands (ev):

    -6.5752   7.1569  10.4480  13.1124

          k = 0.1250-0.1250 0.3750 (  2083 PWs)   bands (ev):

    -6.5593   8.7592   8.8845  12.4873

          k = 0.1250 0.1250-0.3750 (  2083 PWs)   bands (ev):

    -6.5628   7.4350  11.0076  11.5793

          k = 0.5000 0.2500-0.2500 (  2102 PWs)   bands (ev):

    -4.7463   3.6402   9.3892  11.6952

          k = 0.2500-0.2500 0.5000 (  2102 PWs)   bands (ev):

    -4.7343   4.6184   8.3387  11.4002

          k = 0.2500 0.2500-0.5000 (  2102 PWs)   bands (ev):

    -4.7294   3.7465   9.6040  10.9511

          k =-0.3750-0.6250 0.6250 (  2092 PWs)   bands (ev):

    -2.2189   0.1812   8.9721  10.8517

          k =-0.6250 0.6250-0.3750 (  2092 PWs)   bands (ev):

    -2.4815   1.2487   8.3033  10.3746

          k =-0.6250-0.6250 0.3750 (  2092 PWs)   bands (ev):

    -2.2086   0.2045   8.6202  11.0858

          k =-0.2500-0.5000 0.5000 (  2098 PWs)   bands (ev):

    -3.1066   1.2994   8.9383  10.9666

          k =-0.5000 0.5000-0.2500 (  2098 PWs)   bands (ev):

    -3.2121   2.2748   8.7708   9.8154

          k =-0.5000-0.5000 0.2500 (  2098 PWs)   bands (ev):

    -3.1163   1.2751   8.2721  11.9367

          k =-0.1250-0.3750 0.3750 (  2086 PWs)   bands (ev):

    -5.4353   4.9905   9.3174  11.9811

          k =-0.3750 0.3750-0.1250 (  2086 PWs)   bands (ev):

    -5.4320   6.1874   9.5690   9.9030

          k =-0.3750-0.3750 0.1250 (  2086 PWs)   bands (ev):

    -5.4511   4.8001   8.7712  13.3709

          k =-0.2500 0.2500 0.0000 (  2079 PWs)   bands (ev):

    -6.9916  10.1647  10.3057  11.0778

          k =-0.2500-0.2500 0.0000 (  2079 PWs)   bands (ev):

    -7.0079   7.6948  10.5755  14.9903

          k = 0.0000 0.0000 0.5000 (  2085 PWs)   bands (ev):

    -5.8413   7.8968   9.1963  10.0979

          k = 0.6250 0.1250-0.1250 (  2095 PWs)   bands (ev):

    -4.3246   4.9120   8.3429   9.7282

          k = 0.1250-0.1250 0.6250 (  2095 PWs)   bands (ev):

    -4.2966   6.1417   7.2677   8.9903

          k = 0.1250 0.1250-0.6250 (  2095 PWs)   bands (ev):

    -4.2941   5.5246   7.5805   9.3234

          k =-0.2500-0.7500 0.7500 (  2101 PWs)   bands (ev):

    -2.0371   1.9359   7.0933   8.9193

          k =-0.7500 0.7500-0.2500 (  2101 PWs)   bands (ev):

    -2.1231   2.9501   7.2235   7.3775

          k =-0.7500-0.7500 0.2500 (  2101 PWs)   bands (ev):

    -2.0123   2.1870   6.1451   9.3733

          k =-0.1250-0.6250 0.6250 (  2092 PWs)   bands (ev):

    -1.2392   1.1609   6.0026   9.4546

          k =-0.6250 0.6250-0.1250 (  2092 PWs)   bands (ev):

    -1.5408   2.4041   6.2103   7.7681

          k =-0.6250-0.6250 0.1250 (  2092 PWs)   bands (ev):

    -1.1867   1.1077   5.3119  10.2344

          k =-0.5000 0.5000 0.0000 (  2099 PWs)   bands (ev):

    -3.6717   5.7739   5.8352   8.7080

          k =-0.5000-0.5000 0.0000 (  2099 PWs)   bands (ev):

    -3.6547   3.6610   5.9202  11.7594

          k = 0.0000 0.0000 0.7500 (  2104 PWs)   bands (ev):

    -3.0443   5.0461   6.5026   8.3240

          k =-0.1250-0.8750 0.8750 (  2095 PWs)   bands (ev):

    -1.0996   2.2797   6.4798   7.7314

          k =-0.8750 0.8750-0.1250 (  2095 PWs)   bands (ev):

    -1.1144   2.9768   6.3333   6.6961

          k =-0.8750-0.8750 0.1250 (  2095 PWs)   bands (ev):

    -1.0724   2.9914   4.9441   8.1496

          k =-0.7500 0.7500 0.0000 (  2097 PWs)   bands (ev):

    -0.0195   2.4699   4.5563   6.8064

          k =-0.7500-0.7500 0.0000 (  2097 PWs)   bands (ev):

     1.0329   1.0900   3.2429   8.8226

          k = 0.0000 0.0000-1.0000 (  2100 PWs)   bands (ev):

     0.1385   1.3207   6.0035   7.7207

          k = 0.5000 0.2500 0.0000 (  2078 PWs)   bands (ev):

    -5.3083   5.5383   8.1842  12.2255

          k = 0.0000-0.5000-0.2500 (  2078 PWs)   bands (ev):

    -5.2961   6.3254   7.9361  11.2400

          k = 0.2500 0.0000 0.5000 (  2078 PWs)   bands (ev):

    -5.2822   6.5528   7.7197  10.9291

          k =-0.3750-0.6250 0.8750 (  2088 PWs)   bands (ev):

    -3.2416   2.8447   6.8773  10.6240

          k = 0.8750 0.3750 0.6250 (  2088 PWs)   bands (ev):

    -3.2405   2.9436   7.6650   9.5074

          k =-0.8750 0.3750-0.6250 (  2088 PWs)   bands (ev):

    -3.2754   4.0526   5.9289  10.1961

          k =-0.6250 0.8750-0.3750 (  2088 PWs)   bands (ev):

    -3.2542   3.8895   6.3981   9.6248

          k =-0.6250-0.8750 0.3750 (  2088 PWs)   bands (ev):

    -3.2215   3.0801   7.1016   9.7650

          k =-0.2500-0.5000 0.7500 (  2092 PWs)   bands (ev):

    -0.9347   0.1770   6.7821   9.6201

          k = 0.7500 0.2500 0.5000 (  2092 PWs)   bands (ev):

    -0.9490   0.1409   8.1009   8.3188

          k =-0.7500 0.2500-0.5000 (  2092 PWs)   bands (ev):

    -1.5187   1.6487   5.7692   9.7666

          k =-0.2500-0.7500 1.0000 (  2101 PWs)   bands (ev):

    -2.5523   3.4542   6.5673   8.5278

          k = 1.0000 0.2500 0.7500 (  2101 PWs)   bands (ev):

    -2.5750   4.0014   6.4659   7.9692

          k =-0.7500 1.0000-0.2500 (  2101 PWs)   bands (ev):

    -2.5344   4.5790   5.6644   7.8336

          k =-0.1250-0.6250 0.8750 (  2110 PWs)   bands (ev):

    -0.1365   1.4648   5.1210   7.5747

          k = 0.8750 0.1250 0.6250 (  2110 PWs)   bands (ev):

    -0.2192   1.5196   5.7856   6.9255

          k =-0.8750 0.1250-0.6250 (  2110 PWs)   bands (ev):

    -0.5229   2.8657   4.0438   7.6327

          k =-0.6250 0.8750-0.1250 (  2110 PWs)   bands (ev):

    -0.5071   2.7653   5.3698   6.0594

          k =-0.6250-0.8750 0.1250 (  2110 PWs)   bands (ev):

    -0.1984   1.9285   4.3572   7.8095

          k = 0.7500 0.0000 0.5000 (  2095 PWs)   bands (ev):

    -1.1636   2.7838   4.5244   8.2562

          k =-0.5000 0.7500 0.0000 (  2095 PWs)   bands (ev):

    -1.2877   4.0196   4.6731   6.5824

          k =-0.5000-0.7500 0.0000 (  2095 PWs)   bands (ev):

    -1.0127   2.1742   4.4025   8.8989

          k = 0.0000 1.0000-0.2500 (  2110 PWs)   bands (ev):

     0.8442   0.8442   6.2646   6.2646

          k = 0.2500 0.0000-1.0000 (  2110 PWs)   bands (ev):

     0.4253   1.7752   4.9700   6.7299

          k = 0.0000 1.0000-0.5000 (  2120 PWs)   bands (ev):

     1.2783   1.2783   5.2411   5.2411

!    total energy              =     -35.58588043 Ry
     Harris-Foulkes estimate   =     -35.58588083 Ry
     estimated scf accuracy    <       0.00000064 Ry

     total all-electron energy =      -151.144877 Ry

     The total energy is the sum of the following terms:

     one-electron contribution =       8.65995667 Ry
     hartree contribution      =       1.92328694 Ry
     xc contribution           =      -8.42506025 Ry
     ewald contribution        =     -25.66921684 Ry
     one-center paw contrib.   =     -12.07484695 Ry

     convergence has been achieved in   6 iterations

     Forces acting on atoms (Ry/au):

     atom    1 type  1   force =     0.00000000    0.00000000   -0.24483499
     atom    2 type  1   force =     0.00000000    0.00000000    0.24483499

     Total force =     0.346249     Total SCF correction =     0.000304

     Writing output data file diamond.save

     init_run     :      3.38s CPU      3.31s WALL (       1 calls)
     electrons    :     33.27s CPU     30.96s WALL (       1 calls)
     forces       :      0.64s CPU      0.51s WALL (       1 calls)

     Called by init_run:
     wfcinit      :      2.60s CPU      2.49s WALL (       1 calls)
     potinit      :      0.05s CPU      0.05s WALL (       1 calls)

     Called by electrons:
     c_bands      :     28.53s CPU     26.28s WALL (       6 calls)
     sum_band     :      4.20s CPU      4.06s WALL (       6 calls)
     v_of_rho     :      0.08s CPU      0.08s WALL (       7 calls)
     newd         :      0.22s CPU      0.23s WALL (       7 calls)
     mix_rho      :      0.10s CPU      0.10s WALL (       6 calls)

     Called by c_bands:
     init_us_2    :      1.58s CPU      1.65s WALL (    1330 calls)
     cegterg      :     26.76s CPU     23.75s WALL (     570 calls)

     Called by *egterg:
     h_psi        :     22.42s CPU     21.20s WALL (    2313 calls)
     s_psi        :      1.95s CPU      1.12s WALL (    2313 calls)
     g_psi        :      0.13s CPU      0.16s WALL (    1648 calls)
     cdiaghg      :      0.38s CPU      0.45s WALL (    2218 calls)

     Called by h_psi:
     add_vuspsi   :      1.96s CPU      1.18s WALL (    2313 calls)

     General routines
     calbec       :      2.74s CPU      1.67s WALL (    2978 calls)
     fft          :      0.07s CPU      0.07s WALL (      45 calls)
     fftw         :     17.94s CPU     18.31s WALL (   17868 calls)
     davcio       :      0.21s CPU      0.89s WALL (    1900 calls)


     PAW routines
     PAW_pot      :      0.20s CPU      0.20s WALL (       7 calls)
     PAW_ddot     :      0.07s CPU      0.07s WALL (      36 calls)
     PAW_symme    :      0.00s CPU      0.00s WALL (      13 calls)

     PWSCF        :    37.76s CPU        35.37s WALL


   This run was terminated on:  21:40:51  26Mar2012            

=------------------------------------------------------------------------------=
   JOB DONE.
=------------------------------------------------------------------------------=
