
     Program PWSCF v.4.3.2      starts on 26Mar2012 at 21:35:25 

     This program is part of the open-source Quantum ESPRESSO suite
     for quantum simulation of materials; please cite
         "P. Giannozzi et al., J. Phys.:Condens. Matter 21 395502 (2009);
          URL http://www.quantum-espresso.org", 
     in publications or presentations arising from this work. More details at
     http://www.quantum-espresso.org/wiki/index.php/Citing_Quantum-ESPRESSO

     Current dimensions of program PWSCF are:
     Max number of different atomic species (ntypx) = 10
     Max number of k-points (npk) =  40000
     Max angular momentum in pseudopotentials (lmaxx) =  3
     Waiting for input...
     Reading input from stdin
     warning: symmetry operation #  5 not allowed.   fractional translation:
       0.2000000  0.2000000  0.3000000  in crystal coordinates
     warning: symmetry operation #  6 not allowed.   fractional translation:
       0.2000000  0.2000000  0.3000000  in crystal coordinates
     warning: symmetry operation # 25 not allowed.   fractional translation:
       0.2000000  0.2000000  0.3000000  in crystal coordinates
     warning: symmetry operation # 26 not allowed.   fractional translation:
       0.2000000  0.2000000  0.3000000  in crystal coordinates

     G-vector sticks info
     --------------------
     sticks:   dense  smooth     PW     G-vecs:    dense   smooth      PW
     Sum         847     847    253                16265    16265    2733



     bravais-lattice index     =            2
     lattice parameter (alat)  =       6.6100  a.u.
     unit-cell volume          =      72.2012 (a.u.)^3
     number of atoms/cell      =            2
     number of atomic types    =            1
     number of electrons       =         8.00
     number of Kohn-Sham states=            4
     kinetic-energy cutoff     =     140.0000  Ry
     charge density cutoff     =     560.0000  Ry
     convergence threshold     =      1.0E-06
     mixing beta               =       0.7000
     number of iterations used =            8  plain     mixing
     Exchange-correlation      =  SLA  PZ   NOGX NOGC ( 1 1 0 0 0)
     EXX-fraction              =        0.00

     celldm(1)=   6.610000  celldm(2)=   0.000000  celldm(3)=   0.000000
     celldm(4)=   0.000000  celldm(5)=   0.000000  celldm(6)=   0.000000

     crystal axes: (cart. coord. in units of alat)
               a(1) = (  -0.500000   0.000000   0.500000 )  
               a(2) = (   0.000000   0.500000   0.500000 )  
               a(3) = (  -0.500000   0.500000   0.000000 )  

     reciprocal axes: (cart. coord. in units 2 pi/alat)
               b(1) = ( -1.000000 -1.000000  1.000000 )  
               b(2) = (  1.000000  1.000000  1.000000 )  
               b(3) = ( -1.000000  1.000000 -1.000000 )  


     PseudoPot. # 1 for  C read from file:
     /home/mullspace/Documents/espresso-4.3.2/pseudo/C.pz-kjpaw.UPF
     MD5 check sum: 414e6e825ae75add557e798061b49a04
     Pseudo is Projector augmented-wave + core cor, Zval =  4.0
     Generated using "atomic" code by A. Dal Corso (espresso distribution)
     Shape of augmentation charge: BESSEL
     Using radial grid of 1073 points,  4 beta functions with: 
                l(1) =   0
                l(2) =   0
                l(3) =   1
                l(4) =   1
     Q(r) pseudized with 0 coefficients 


     atomic species   valence    mass     pseudopotential
        C              4.00    12.01070      C( 1.00)

      4 Sym.Ops. (no inversion)


   Cartesian axes

     site n.     atom                  positions (alat units)
         1           C   tau(   1) = (   0.0000000   0.0000000   0.0500000  )
         2           C   tau(   2) = (   0.2500000   0.2500000   0.2500000  )

     number of k points=    95
                       cart. coord. in units 2pi/alat
        k(    1) = (   0.0000000   0.0000000   0.0000000), wk =   0.0039063
        k(    2) = (  -0.1250000   0.1250000  -0.1250000), wk =   0.0156250
        k(    3) = (  -0.2500000   0.2500000  -0.2500000), wk =   0.0156250
        k(    4) = (  -0.3750000   0.3750000  -0.3750000), wk =   0.0156250
        k(    5) = (   0.5000000  -0.5000000   0.5000000), wk =   0.0078125
        k(    6) = (   0.0000000   0.2500000   0.0000000), wk =   0.0156250
        k(    7) = (  -0.1250000   0.3750000  -0.1250000), wk =   0.0312500
        k(    8) = (  -0.2500000   0.5000000  -0.2500000), wk =   0.0312500
        k(    9) = (   0.6250000  -0.3750000   0.6250000), wk =   0.0312500
        k(   10) = (   0.5000000  -0.2500000   0.5000000), wk =   0.0312500
        k(   11) = (   0.3750000  -0.1250000   0.3750000), wk =   0.0312500
        k(   12) = (   0.2500000   0.0000000   0.2500000), wk =   0.0312500
        k(   13) = (   0.0000000   0.5000000   0.0000000), wk =   0.0156250
        k(   14) = (  -0.1250000   0.6250000  -0.1250000), wk =   0.0312500
        k(   15) = (   0.7500000  -0.2500000   0.7500000), wk =   0.0312500
        k(   16) = (   0.6250000  -0.1250000   0.6250000), wk =   0.0312500
        k(   17) = (   0.5000000   0.0000000   0.5000000), wk =   0.0312500
        k(   18) = (   0.0000000   0.7500000   0.0000000), wk =   0.0156250
        k(   19) = (   0.8750000  -0.1250000   0.8750000), wk =   0.0312500
        k(   20) = (   0.7500000   0.0000000   0.7500000), wk =   0.0312500
        k(   21) = (   0.0000000  -1.0000000   0.0000000), wk =   0.0078125
        k(   22) = (  -0.2500000   0.5000000   0.0000000), wk =   0.0156250
        k(   23) = (   0.6250000  -0.3750000   0.8750000), wk =   0.0312500
        k(   24) = (   0.5000000  -0.2500000   0.7500000), wk =   0.0312500
        k(   25) = (   0.7500000  -0.2500000   1.0000000), wk =   0.0156250
        k(   26) = (   0.6250000  -0.1250000   0.8750000), wk =   0.0312500
        k(   27) = (   0.5000000   0.0000000   0.7500000), wk =   0.0312500
        k(   28) = (  -0.2500000  -1.0000000   0.0000000), wk =   0.0156250
        k(   29) = (  -0.5000000  -1.0000000   0.0000000), wk =   0.0156250
        k(   30) = (   0.1250000   0.1250000  -0.1250000), wk =   0.0156250
        k(   31) = (   0.2500000   0.2500000  -0.2500000), wk =   0.0156250
        k(   32) = (   0.3750000   0.3750000  -0.3750000), wk =   0.0156250
        k(   33) = (  -0.5000000  -0.5000000   0.5000000), wk =   0.0078125
        k(   34) = (   0.0000000   0.0000000   0.2500000), wk =   0.0078125
        k(   35) = (   0.3750000   0.1250000  -0.1250000), wk =   0.0312500
        k(   36) = (   0.1250000  -0.1250000   0.3750000), wk =   0.0156250
        k(   37) = (   0.1250000   0.1250000  -0.3750000), wk =   0.0156250
        k(   38) = (   0.5000000   0.2500000  -0.2500000), wk =   0.0312500
        k(   39) = (   0.2500000  -0.2500000   0.5000000), wk =   0.0156250
        k(   40) = (   0.2500000   0.2500000  -0.5000000), wk =   0.0156250
        k(   41) = (  -0.3750000  -0.6250000   0.6250000), wk =   0.0312500
        k(   42) = (  -0.6250000   0.6250000  -0.3750000), wk =   0.0156250
        k(   43) = (  -0.6250000  -0.6250000   0.3750000), wk =   0.0156250
        k(   44) = (  -0.2500000  -0.5000000   0.5000000), wk =   0.0312500
        k(   45) = (  -0.5000000   0.5000000  -0.2500000), wk =   0.0156250
        k(   46) = (  -0.5000000  -0.5000000   0.2500000), wk =   0.0156250
        k(   47) = (  -0.1250000  -0.3750000   0.3750000), wk =   0.0312500
        k(   48) = (  -0.3750000   0.3750000  -0.1250000), wk =   0.0156250
        k(   49) = (  -0.3750000  -0.3750000   0.1250000), wk =   0.0156250
        k(   50) = (  -0.2500000   0.2500000   0.0000000), wk =   0.0078125
        k(   51) = (  -0.2500000  -0.2500000   0.0000000), wk =   0.0078125
        k(   52) = (   0.0000000   0.0000000   0.5000000), wk =   0.0078125
        k(   53) = (   0.6250000   0.1250000  -0.1250000), wk =   0.0312500
        k(   54) = (   0.1250000  -0.1250000   0.6250000), wk =   0.0156250
        k(   55) = (   0.1250000   0.1250000  -0.6250000), wk =   0.0156250
        k(   56) = (  -0.2500000  -0.7500000   0.7500000), wk =   0.0312500
        k(   57) = (  -0.7500000   0.7500000  -0.2500000), wk =   0.0156250
        k(   58) = (  -0.7500000  -0.7500000   0.2500000), wk =   0.0156250
        k(   59) = (  -0.1250000  -0.6250000   0.6250000), wk =   0.0312500
        k(   60) = (  -0.6250000   0.6250000  -0.1250000), wk =   0.0156250
        k(   61) = (  -0.6250000  -0.6250000   0.1250000), wk =   0.0156250
        k(   62) = (  -0.5000000   0.5000000   0.0000000), wk =   0.0078125
        k(   63) = (  -0.5000000  -0.5000000   0.0000000), wk =   0.0078125
        k(   64) = (   0.0000000   0.0000000   0.7500000), wk =   0.0078125
        k(   65) = (  -0.1250000  -0.8750000   0.8750000), wk =   0.0312500
        k(   66) = (  -0.8750000   0.8750000  -0.1250000), wk =   0.0156250
        k(   67) = (  -0.8750000  -0.8750000   0.1250000), wk =   0.0156250
        k(   68) = (  -0.7500000   0.7500000   0.0000000), wk =   0.0078125
        k(   69) = (  -0.7500000  -0.7500000   0.0000000), wk =   0.0078125
        k(   70) = (   0.0000000   0.0000000  -1.0000000), wk =   0.0039063
        k(   71) = (   0.5000000   0.2500000   0.0000000), wk =   0.0156250
        k(   72) = (   0.0000000  -0.5000000  -0.2500000), wk =   0.0312500
        k(   73) = (   0.2500000   0.0000000   0.5000000), wk =   0.0312500
        k(   74) = (  -0.3750000  -0.6250000   0.8750000), wk =   0.0312500
        k(   75) = (   0.8750000   0.3750000   0.6250000), wk =   0.0312500
        k(   76) = (  -0.8750000   0.3750000  -0.6250000), wk =   0.0312500
        k(   77) = (  -0.6250000   0.8750000  -0.3750000), wk =   0.0312500
        k(   78) = (  -0.6250000  -0.8750000   0.3750000), wk =   0.0312500
        k(   79) = (  -0.2500000  -0.5000000   0.7500000), wk =   0.0312500
        k(   80) = (   0.7500000   0.2500000   0.5000000), wk =   0.0156250
        k(   81) = (  -0.7500000   0.2500000  -0.5000000), wk =   0.0156250
        k(   82) = (  -0.2500000  -0.7500000   1.0000000), wk =   0.0156250
        k(   83) = (   1.0000000   0.2500000   0.7500000), wk =   0.0312500
        k(   84) = (  -0.7500000   1.0000000  -0.2500000), wk =   0.0312500
        k(   85) = (  -0.1250000  -0.6250000   0.8750000), wk =   0.0312500
        k(   86) = (   0.8750000   0.1250000   0.6250000), wk =   0.0312500
        k(   87) = (  -0.8750000   0.1250000  -0.6250000), wk =   0.0312500
        k(   88) = (  -0.6250000   0.8750000  -0.1250000), wk =   0.0312500
        k(   89) = (  -0.6250000  -0.8750000   0.1250000), wk =   0.0312500
        k(   90) = (   0.7500000   0.0000000   0.5000000), wk =   0.0312500
        k(   91) = (  -0.5000000   0.7500000   0.0000000), wk =   0.0156250
        k(   92) = (  -0.5000000  -0.7500000   0.0000000), wk =   0.0156250
        k(   93) = (   0.0000000   1.0000000  -0.2500000), wk =   0.0156250
        k(   94) = (   0.2500000   0.0000000  -1.0000000), wk =   0.0156250
        k(   95) = (   0.0000000   1.0000000  -0.5000000), wk =   0.0078125

     Dense  grid:    16265 G-vectors     FFT dimensions: (  36,  36,  36)

     Largest allocated arrays     est. size (Mb)     dimensions
        Kohn-Sham Wavefunctions         0.12 Mb     (   2044,    4)
        NL pseudopotentials             0.50 Mb     (   2044,   16)
        Each V/rho on FFT grid          0.71 Mb     (  46656)
        Each G-vector array             0.12 Mb     (  16265)
        G-vector shells                 0.00 Mb     (    209)
     Largest temporary arrays     est. size (Mb)     dimensions
        Auxiliary wavefunctions         0.50 Mb     (   2044,   16)
        Each subspace H/S matrix        0.00 Mb     (  16,  16)
        Each <psi_i|beta_j> matrix      0.00 Mb     (     16,    4)
        Arrays for rho mixing           5.70 Mb     (  46656,   8)

     Initial potential from superposition of free atoms

     starting charge    7.99993, renormalised to    8.00000
     Starting wfc are    8 atomic wfcs

     total cpu time spent up to now is        3.4 secs

     per-process dynamical memory:    10.5 Mb

     Self-consistent Calculation

     iteration #  1     ecut=   140.00 Ry     beta=0.70
     Davidson diagonalization with overlap
     ethr =  1.00E-02,  avg # of iterations =  3.0

     total cpu time spent up to now is        8.2 secs

     total energy              =     -35.55252834 Ry
     Harris-Foulkes estimate   =     -35.61857014 Ry
     estimated scf accuracy    <       0.11793880 Ry

     iteration #  2     ecut=   140.00 Ry     beta=0.70
     Davidson diagonalization with overlap
     ethr =  1.47E-03,  avg # of iterations =  2.8

     total cpu time spent up to now is       13.2 secs

     total energy              =     -35.57723590 Ry
     Harris-Foulkes estimate   =     -35.58159952 Ry
     estimated scf accuracy    <       0.00838067 Ry

     iteration #  3     ecut=   140.00 Ry     beta=0.70
     Davidson diagonalization with overlap
     ethr =  1.05E-04,  avg # of iterations =  2.8

     total cpu time spent up to now is       18.5 secs

     total energy              =     -35.58227106 Ry
     Harris-Foulkes estimate   =     -35.58283897 Ry
     estimated scf accuracy    <       0.00088689 Ry

     iteration #  4     ecut=   140.00 Ry     beta=0.70
     Davidson diagonalization with overlap
     ethr =  1.11E-05,  avg # of iterations =  3.1

     total cpu time spent up to now is       24.2 secs

     total energy              =     -35.58254553 Ry
     Harris-Foulkes estimate   =     -35.58256424 Ry
     estimated scf accuracy    <       0.00005014 Ry

     iteration #  5     ecut=   140.00 Ry     beta=0.70
     Davidson diagonalization with overlap
     ethr =  6.27E-07,  avg # of iterations =  2.4

     total cpu time spent up to now is       29.5 secs

     total energy              =     -35.58255303 Ry
     Harris-Foulkes estimate   =     -35.58255708 Ry
     estimated scf accuracy    <       0.00000554 Ry

     iteration #  6     ecut=   140.00 Ry     beta=0.70
     Davidson diagonalization with overlap
     ethr =  6.92E-08,  avg # of iterations =  3.4

     total cpu time spent up to now is       35.8 secs

     End of self-consistent calculation

          k = 0.0000 0.0000 0.0000 (  1989 PWs)   bands (ev):

    -7.9732  11.3887  14.6346  16.9727

          k =-0.1250 0.1250-0.1250 (  2016 PWs)   bands (ev):

    -7.5241  11.0077  12.2682  15.0104

          k =-0.2500 0.2500-0.2500 (  2009 PWs)   bands (ev):

    -6.1918   7.7754  10.2389  13.7734

          k =-0.3750 0.3750-0.3750 (  2024 PWs)   bands (ev):

    -4.0568   3.4602   9.6115  13.0435

          k = 0.5000-0.5000 0.5000 (  2036 PWs)   bands (ev):

    -2.0759   0.7203   9.3808  12.8041

          k = 0.0000 0.2500 0.0000 (  2021 PWs)   bands (ev):

    -7.3801  10.2606  12.6063  14.7121

          k =-0.1250 0.3750-0.1250 (  2020 PWs)   bands (ev):

    -6.3424   9.4723   9.7090  12.6179

          k =-0.2500 0.5000-0.2500 (  2008 PWs)   bands (ev):

    -4.4679   5.1661   8.9435  11.7619

          k = 0.6250-0.3750 0.6250 (  2015 PWs)   bands (ev):

    -2.1164   1.5851   8.3544  11.5924

          k = 0.5000-0.2500 0.5000 (  2011 PWs)   bands (ev):

    -2.8663   2.5638   8.1245  12.1028

          k = 0.3750-0.1250 0.3750 (  2012 PWs)   bands (ev):

    -5.1782   6.5146   8.3842  13.0879

          k = 0.2500 0.0000 0.2500 (  2015 PWs)   bands (ev):

    -6.7864   9.0770  10.8364  14.1278

          k = 0.0000 0.5000 0.0000 (  2020 PWs)   bands (ev):

    -5.6216   7.9485  10.0176  11.4194

          k =-0.1250 0.6250-0.1250 (  2021 PWs)   bands (ev):

    -4.0406   6.9722   7.4048   9.8242

          k = 0.7500-0.2500 0.7500 (  2020 PWs)   bands (ev):

    -1.8042   3.6193   6.0607   9.6136

          k = 0.6250-0.1250 0.6250 (  2018 PWs)   bands (ev):

    -1.0963   2.6890   5.2695  10.2147

          k = 0.5000 0.0000 0.5000 (  2017 PWs)   bands (ev):

    -3.3476   4.9347   6.1334  11.3676

          k = 0.0000 0.7500 0.0000 (  2008 PWs)   bands (ev):

    -2.7785   4.8717   8.3042   8.7085

          k = 0.8750-0.1250 0.8750 (  2029 PWs)   bands (ev):

    -0.8003   3.2324   6.3494   8.2444

          k = 0.7500 0.0000 0.7500 (  2033 PWs)   bands (ev):

     0.7910   1.9834   4.4192   8.7840

          k = 0.0000-1.0000 0.0000 (  2044 PWs)   bands (ev):

     0.9260   0.9260   7.7753   7.7753

          k =-0.2500 0.5000 0.0000 (  2024 PWs)   bands (ev):

    -5.0325   8.3741   8.8437   9.2500

          k = 0.6250-0.3750 0.8750 (  2021 PWs)   bands (ev):

    -2.9568   4.5331   8.0969   8.4824

          k = 0.5000-0.2500 0.7500 (  2026 PWs)   bands (ev):

    -1.0782   1.8822   7.2345   8.9929

          k = 0.7500-0.2500 1.0000 (  2035 PWs)   bands (ev):

    -2.2588   5.5867   6.8815   7.1301

          k = 0.6250-0.1250 0.8750 (  2024 PWs)   bands (ev):

    -0.1302   3.4955   4.7271   7.4267

          k = 0.5000 0.0000 0.7500 (  2025 PWs)   bands (ev):

    -0.7492   3.4271   4.6622   8.6284

          k =-0.2500-1.0000 0.0000 (  2020 PWs)   bands (ev):

     1.1238   1.4739   6.4618   6.8017

          k =-0.5000-1.0000 0.0000 (  1984 PWs)   bands (ev):

     1.3595   2.5909   4.5684   6.0352

          k = 0.1250 0.1250-0.1250 (  2016 PWs)   bands (ev):

    -7.5300   9.9580  13.3699  15.3363

          k = 0.2500 0.2500-0.2500 (  2009 PWs)   bands (ev):

    -6.2108   6.5127  11.6893  13.8887

          k = 0.3750 0.3750-0.3750 (  2024 PWs)   bands (ev):

    -4.0554   2.5907  10.6659  13.0201

          k =-0.5000-0.5000 0.5000 (  2036 PWs)   bands (ev):

    -1.5693  -0.5436  10.3258  12.7351

          k = 0.0000 0.0000 0.2500 (  2021 PWs)   bands (ev):

    -7.3758  10.3139  13.1866  13.5337

          k = 0.3750 0.1250-0.1250 (  2020 PWs)   bands (ev):

    -6.3573   7.6967  11.0032  13.7587

          k = 0.1250-0.1250 0.3750 (  2020 PWs)   bands (ev):

    -6.3382   9.3044   9.4230  13.1293

          k = 0.1250 0.1250-0.3750 (  2020 PWs)   bands (ev):

    -6.3433   7.9505  11.6440  12.1537

          k = 0.5000 0.2500-0.2500 (  2008 PWs)   bands (ev):

    -4.4841   4.0912   9.9226  12.2969

          k = 0.2500-0.2500 0.5000 (  2008 PWs)   bands (ev):

    -4.4592   5.0471   8.8597  12.0071

          k = 0.2500 0.2500-0.5000 (  2008 PWs)   bands (ev):

    -4.4635   4.1797  10.1884  11.5084

          k =-0.3750-0.6250 0.6250 (  2015 PWs)   bands (ev):

    -1.8791   0.5276   9.5051  11.4220

          k =-0.6250 0.6250-0.3750 (  2015 PWs)   bands (ev):

    -2.0989   1.5384   8.8261  10.9463

          k =-0.6250-0.6250 0.3750 (  2015 PWs)   bands (ev):

    -1.8632   0.5402   9.1648  11.6502

          k =-0.2500-0.5000 0.5000 (  2011 PWs)   bands (ev):

    -2.7954   1.6766   9.4753  11.5379

          k =-0.5000 0.5000-0.2500 (  2011 PWs)   bands (ev):

    -2.8717   2.6107   9.3127  10.3669

          k =-0.5000-0.5000 0.2500 (  2011 PWs)   bands (ev):

    -2.8127   1.6638   8.7923  12.5303

          k =-0.1250-0.3750 0.3750 (  2012 PWs)   bands (ev):

    -5.1876   5.4605   9.8634  12.5858

          k =-0.3750 0.3750-0.1250 (  2012 PWs)   bands (ev):

    -5.1753   6.6456  10.1414  10.4553

          k =-0.3750-0.3750 0.1250 (  2012 PWs)   bands (ev):

    -5.2083   5.2905   9.2841  14.0120

          k =-0.2500 0.2500 0.0000 (  2015 PWs)   bands (ev):

    -6.7801  10.7242  10.9060  11.6642

          k =-0.2500-0.2500 0.0000 (  2015 PWs)   bands (ev):

    -6.8015   8.2566  11.1268  15.6851

          k = 0.0000 0.0000 0.5000 (  2020 PWs)   bands (ev):

    -5.6025   8.3975   9.8228  10.6252

          k = 0.6250 0.1250-0.1250 (  2021 PWs)   bands (ev):

    -4.0503   5.4279   8.8289  10.2626

          k = 0.1250-0.1250 0.6250 (  2021 PWs)   bands (ev):

    -4.0145   6.6551   7.7471   9.5105

          k = 0.1250 0.1250-0.6250 (  2021 PWs)   bands (ev):

    -4.0147   5.9976   8.1295   9.8277

          k =-0.2500-0.7500 0.7500 (  2020 PWs)   bands (ev):

    -1.7025   2.3682   7.5584   9.4212

          k =-0.7500 0.7500-0.2500 (  2020 PWs)   bands (ev):

    -1.7573   3.3377   7.7034   7.8550

          k =-0.7500-0.7500 0.2500 (  2020 PWs)   bands (ev):

    -1.6673   2.5854   6.6348   9.8804

          k =-0.1250-0.6250 0.6250 (  2018 PWs)   bands (ev):

    -0.8591   1.5363   6.4463   9.9749

          k =-0.6250 0.6250-0.1250 (  2018 PWs)   bands (ev):

    -1.1252   2.7285   6.6606   8.2696

          k =-0.6250-0.6250 0.1250 (  2018 PWs)   bands (ev):

    -0.8298   1.5078   5.7526  10.7695

          k =-0.5000 0.5000 0.0000 (  2017 PWs)   bands (ev):

    -3.3576   6.2029   6.2966   9.2463

          k =-0.5000-0.5000 0.0000 (  2017 PWs)   bands (ev):

    -3.3696   4.1660   6.3344  12.3447

          k = 0.0000 0.0000 0.7500 (  2008 PWs)   bands (ev):

    -2.7291   5.5652   6.9550   8.7976

          k =-0.1250-0.8750 0.8750 (  2029 PWs)   bands (ev):

    -0.7399   2.7627   6.8897   8.1923

          k =-0.8750 0.8750-0.1250 (  2029 PWs)   bands (ev):

    -0.7297   3.4305   6.7806   7.1062

          k =-0.8750-0.8750 0.1250 (  2029 PWs)   bands (ev):

    -0.6954   3.4587   5.3436   8.6183

          k =-0.7500 0.7500 0.0000 (  2033 PWs)   bands (ev):

     0.4701   2.8527   4.8798   7.2715

          k =-0.7500-0.7500 0.0000 (  2033 PWs)   bands (ev):

     1.5045   1.5159   3.5520   9.3124

          k = 0.0000 0.0000-1.0000 (  2044 PWs)   bands (ev):

     0.5989   1.6765   6.4392   8.1763

          k = 0.5000 0.2500 0.0000 (  2024 PWs)   bands (ev):

    -5.0614   6.0718   8.6618  12.8317

          k = 0.0000-0.5000-0.2500 (  2024 PWs)   bands (ev):

    -5.0429   6.8473   8.4290  11.8231

          k = 0.2500 0.0000 0.5000 (  2024 PWs)   bands (ev):

    -5.0280   7.0526   8.2309  11.5130

          k =-0.3750-0.6250 0.8750 (  2021 PWs)   bands (ev):

    -2.9444   3.3013   7.3468  11.1693

          k = 0.8750 0.3750 0.6250 (  2021 PWs)   bands (ev):

    -2.9337   3.3818   8.1485  10.0408

          k =-0.8750 0.3750-0.6250 (  2021 PWs)   bands (ev):

    -2.9558   4.4589   6.4246  10.7296

          k =-0.6250 0.8750-0.3750 (  2021 PWs)   bands (ev):

    -2.9339   4.3044   6.8747  10.1653

          k =-0.6250-0.8750 0.3750 (  2021 PWs)   bands (ev):

    -2.9116   3.4998   7.6098  10.2892

          k =-0.2500-0.5000 0.7500 (  2026 PWs)   bands (ev):

    -0.5311   0.4998   7.2781  10.1289

          k = 0.7500 0.2500 0.5000 (  2026 PWs)   bands (ev):

    -0.5405   0.4648   8.5848   8.8308

          k =-0.7500 0.2500-0.5000 (  2026 PWs)   bands (ev):

    -1.0958   1.9305   6.2712  10.2787

          k =-0.2500-0.7500 1.0000 (  2035 PWs)   bands (ev):

    -2.2365   3.9747   6.9978   8.9922

          k = 1.0000 0.2500 0.7500 (  2035 PWs)   bands (ev):

    -2.2464   4.5093   6.9019   8.4267

          k =-0.7500 1.0000-0.2500 (  2035 PWs)   bands (ev):

    -2.2013   5.0860   6.0968   8.2854

          k =-0.1250-0.6250 0.8750 (  2024 PWs)   bands (ev):

     0.2501   1.9214   5.5212   8.0107

          k = 0.8750 0.1250 0.6250 (  2024 PWs)   bands (ev):

     0.1833   1.9584   6.1822   7.3658

          k =-0.8750 0.1250-0.6250 (  2024 PWs)   bands (ev):

    -0.1008   3.3272   4.3949   8.0739

          k =-0.6250 0.8750-0.1250 (  2024 PWs)   bands (ev):

    -0.0671   3.1611   5.7921   6.4666

          k =-0.6250-0.8750 0.1250 (  2024 PWs)   bands (ev):

     0.2148   2.3468   4.7631   8.2542

          k = 0.7500 0.0000 0.5000 (  2025 PWs)   bands (ev):

    -0.7777   3.2444   4.8925   8.7299

          k =-0.5000 0.7500 0.0000 (  2025 PWs)   bands (ev):

    -0.8770   4.4529   5.0385   7.0471

          k =-0.5000-0.7500 0.0000 (  2025 PWs)   bands (ev):

    -0.6591   2.6691   4.7698   9.3808

          k = 0.0000 1.0000-0.2500 (  2020 PWs)   bands (ev):

     1.2765   1.2765   6.6727   6.6727

          k = 0.2500 0.0000-1.0000 (  2020 PWs)   bands (ev):

     0.9018   2.1574   5.3744   7.1410

          k = 0.0000 1.0000-0.5000 (  1984 PWs)   bands (ev):

     1.7466   1.7466   5.5974   5.5974

!    total energy              =     -35.58255622 Ry
     Harris-Foulkes estimate   =     -35.58255634 Ry
     estimated scf accuracy    <       0.00000061 Ry

     total all-electron energy =      -151.141553 Ry

     The total energy is the sum of the following terms:

     one-electron contribution =       9.07677701 Ry
     hartree contribution      =       1.88737887 Ry
     xc contribution           =      -8.48897336 Ry
     ewald contribution        =     -25.97988815 Ry
     one-center paw contrib.   =     -12.07785059 Ry

     convergence has been achieved in   6 iterations

     Forces acting on atoms (Ry/au):

     atom    1 type  1   force =     0.00000000    0.00000000   -0.26042075
     atom    2 type  1   force =     0.00000000    0.00000000    0.26042075

     Total force =     0.368291     Total SCF correction =     0.000170

     Writing output data file diamond.save

     init_run     :      3.31s CPU      3.22s WALL (       1 calls)
     electrons    :     33.85s CPU     32.37s WALL (       1 calls)
     forces       :      0.61s CPU      0.51s WALL (       1 calls)

     Called by init_run:
     wfcinit      :      2.51s CPU      2.41s WALL (       1 calls)
     potinit      :      0.05s CPU      0.05s WALL (       1 calls)

     Called by electrons:
     c_bands      :     28.93s CPU     27.45s WALL (       6 calls)
     sum_band     :      4.39s CPU      4.29s WALL (       6 calls)
     v_of_rho     :      0.08s CPU      0.08s WALL (       7 calls)
     newd         :      0.21s CPU      0.23s WALL (       7 calls)
     mix_rho      :      0.09s CPU      0.10s WALL (       6 calls)

     Called by c_bands:
     init_us_2    :      1.60s CPU      1.64s WALL (    1330 calls)
     cegterg      :     27.17s CPU     24.28s WALL (     570 calls)

     Called by *egterg:
     h_psi        :     22.68s CPU     21.61s WALL (    2327 calls)
     s_psi        :      1.82s CPU      1.10s WALL (    2327 calls)
     g_psi        :      0.17s CPU      0.16s WALL (    1662 calls)
     cdiaghg      :      0.39s CPU      0.46s WALL (    2232 calls)

     Called by h_psi:
     add_vuspsi   :      2.00s CPU      1.16s WALL (    2327 calls)

     General routines
     calbec       :      2.89s CPU      1.68s WALL (    2992 calls)
     fft          :      0.08s CPU      0.07s WALL (      45 calls)
     fftw         :     18.33s CPU     18.86s WALL (   18032 calls)
     davcio       :      0.21s CPU      1.50s WALL (    1900 calls)


     PAW routines
     PAW_pot      :      0.19s CPU      0.20s WALL (       7 calls)
     PAW_ddot     :      0.08s CPU      0.07s WALL (      36 calls)
     PAW_symme    :      0.00s CPU      0.00s WALL (      13 calls)

     PWSCF        :    38.24s CPU        36.72s WALL


   This run was terminated on:  21:36: 2  26Mar2012            

=------------------------------------------------------------------------------=
   JOB DONE.
=------------------------------------------------------------------------------=
