
     Program PWSCF v.4.3.2      starts on 26Mar2012 at 21:44:30 

     This program is part of the open-source Quantum ESPRESSO suite
     for quantum simulation of materials; please cite
         "P. Giannozzi et al., J. Phys.:Condens. Matter 21 395502 (2009);
          URL http://www.quantum-espresso.org", 
     in publications or presentations arising from this work. More details at
     http://www.quantum-espresso.org/wiki/index.php/Citing_Quantum-ESPRESSO

     Current dimensions of program PWSCF are:
     Max number of different atomic species (ntypx) = 10
     Max number of k-points (npk) =  40000
     Max angular momentum in pseudopotentials (lmaxx) =  3
     Waiting for input...
     Reading input from stdin

     G-vector sticks info
     --------------------
     sticks:   dense  smooth     PW     G-vecs:    dense   smooth      PW
     Sum         877     877    265                17261    17261    2891



     bravais-lattice index     =            2
     lattice parameter (alat)  =       6.7600  a.u.
     unit-cell volume          =      77.2289 (a.u.)^3
     number of atoms/cell      =            2
     number of atomic types    =            1
     number of electrons       =         8.00
     number of Kohn-Sham states=            4
     kinetic-energy cutoff     =     140.0000  Ry
     charge density cutoff     =     560.0000  Ry
     convergence threshold     =      1.0E-06
     mixing beta               =       0.7000
     number of iterations used =            8  plain     mixing
     Exchange-correlation      =  SLA  PZ   NOGX NOGC ( 1 1 0 0 0)
     EXX-fraction              =        0.00

     celldm(1)=   6.760000  celldm(2)=   0.000000  celldm(3)=   0.000000
     celldm(4)=   0.000000  celldm(5)=   0.000000  celldm(6)=   0.000000

     crystal axes: (cart. coord. in units of alat)
               a(1) = (  -0.500000   0.000000   0.500000 )  
               a(2) = (   0.000000   0.500000   0.500000 )  
               a(3) = (  -0.500000   0.500000   0.000000 )  

     reciprocal axes: (cart. coord. in units 2 pi/alat)
               b(1) = ( -1.000000 -1.000000  1.000000 )  
               b(2) = (  1.000000  1.000000  1.000000 )  
               b(3) = ( -1.000000  1.000000 -1.000000 )  


     PseudoPot. # 1 for  C read from file:
     /home/mullspace/Documents/espresso-4.3.2/pseudo/C.pz-kjpaw.UPF
     MD5 check sum: 414e6e825ae75add557e798061b49a04
     Pseudo is Projector augmented-wave + core cor, Zval =  4.0
     Generated using "atomic" code by A. Dal Corso (espresso distribution)
     Shape of augmentation charge: BESSEL
     Using radial grid of 1073 points,  4 beta functions with: 
                l(1) =   0
                l(2) =   0
                l(3) =   1
                l(4) =   1
     Q(r) pseudized with 0 coefficients 


     atomic species   valence    mass     pseudopotential
        C              4.00    12.01070      C( 1.00)

      8 Sym.Ops. (with inversion)


   Cartesian axes

     site n.     atom                  positions (alat units)
         1           C   tau(   1) = (   0.0000000   0.0000000   0.0500000  )
         2           C   tau(   2) = (   0.2500000   0.2500000   0.2500000  )

     number of k points=    95
                       cart. coord. in units 2pi/alat
        k(    1) = (   0.0000000   0.0000000   0.0000000), wk =   0.0039063
        k(    2) = (  -0.1250000   0.1250000  -0.1250000), wk =   0.0156250
        k(    3) = (  -0.2500000   0.2500000  -0.2500000), wk =   0.0156250
        k(    4) = (  -0.3750000   0.3750000  -0.3750000), wk =   0.0156250
        k(    5) = (   0.5000000  -0.5000000   0.5000000), wk =   0.0078125
        k(    6) = (   0.0000000   0.2500000   0.0000000), wk =   0.0156250
        k(    7) = (  -0.1250000   0.3750000  -0.1250000), wk =   0.0312500
        k(    8) = (  -0.2500000   0.5000000  -0.2500000), wk =   0.0312500
        k(    9) = (   0.6250000  -0.3750000   0.6250000), wk =   0.0312500
        k(   10) = (   0.5000000  -0.2500000   0.5000000), wk =   0.0312500
        k(   11) = (   0.3750000  -0.1250000   0.3750000), wk =   0.0312500
        k(   12) = (   0.2500000   0.0000000   0.2500000), wk =   0.0312500
        k(   13) = (   0.0000000   0.5000000   0.0000000), wk =   0.0156250
        k(   14) = (  -0.1250000   0.6250000  -0.1250000), wk =   0.0312500
        k(   15) = (   0.7500000  -0.2500000   0.7500000), wk =   0.0312500
        k(   16) = (   0.6250000  -0.1250000   0.6250000), wk =   0.0312500
        k(   17) = (   0.5000000   0.0000000   0.5000000), wk =   0.0312500
        k(   18) = (   0.0000000   0.7500000   0.0000000), wk =   0.0156250
        k(   19) = (   0.8750000  -0.1250000   0.8750000), wk =   0.0312500
        k(   20) = (   0.7500000   0.0000000   0.7500000), wk =   0.0312500
        k(   21) = (   0.0000000  -1.0000000   0.0000000), wk =   0.0078125
        k(   22) = (  -0.2500000   0.5000000   0.0000000), wk =   0.0156250
        k(   23) = (   0.6250000  -0.3750000   0.8750000), wk =   0.0312500
        k(   24) = (   0.5000000  -0.2500000   0.7500000), wk =   0.0312500
        k(   25) = (   0.7500000  -0.2500000   1.0000000), wk =   0.0156250
        k(   26) = (   0.6250000  -0.1250000   0.8750000), wk =   0.0312500
        k(   27) = (   0.5000000   0.0000000   0.7500000), wk =   0.0312500
        k(   28) = (  -0.2500000  -1.0000000   0.0000000), wk =   0.0156250
        k(   29) = (  -0.5000000  -1.0000000   0.0000000), wk =   0.0156250
        k(   30) = (  -0.1250000  -0.1250000  -0.1250000), wk =   0.0156250
        k(   31) = (  -0.2500000  -0.2500000  -0.2500000), wk =   0.0156250
        k(   32) = (  -0.3750000  -0.3750000  -0.3750000), wk =   0.0156250
        k(   33) = (   0.5000000   0.5000000   0.5000000), wk =   0.0078125
        k(   34) = (   0.0000000   0.0000000   0.2500000), wk =   0.0078125
        k(   35) = (  -0.1250000  -0.3750000  -0.1250000), wk =   0.0312500
        k(   36) = (   0.1250000  -0.1250000   0.3750000), wk =   0.0156250
        k(   37) = (   0.1250000   0.1250000  -0.3750000), wk =   0.0156250
        k(   38) = (  -0.2500000  -0.5000000  -0.2500000), wk =   0.0312500
        k(   39) = (   0.2500000  -0.2500000   0.5000000), wk =   0.0156250
        k(   40) = (   0.2500000   0.2500000  -0.5000000), wk =   0.0156250
        k(   41) = (   0.6250000   0.3750000   0.6250000), wk =   0.0312500
        k(   42) = (  -0.6250000   0.6250000  -0.3750000), wk =   0.0156250
        k(   43) = (  -0.6250000  -0.6250000   0.3750000), wk =   0.0156250
        k(   44) = (   0.5000000   0.2500000   0.5000000), wk =   0.0312500
        k(   45) = (  -0.5000000   0.5000000  -0.2500000), wk =   0.0156250
        k(   46) = (  -0.5000000  -0.5000000   0.2500000), wk =   0.0156250
        k(   47) = (   0.3750000   0.1250000   0.3750000), wk =   0.0312500
        k(   48) = (  -0.3750000   0.3750000  -0.1250000), wk =   0.0156250
        k(   49) = (  -0.3750000  -0.3750000   0.1250000), wk =   0.0156250
        k(   50) = (  -0.2500000   0.2500000   0.0000000), wk =   0.0078125
        k(   51) = (  -0.2500000  -0.2500000   0.0000000), wk =   0.0078125
        k(   52) = (   0.0000000   0.0000000   0.5000000), wk =   0.0078125
        k(   53) = (  -0.1250000  -0.6250000  -0.1250000), wk =   0.0312500
        k(   54) = (   0.1250000  -0.1250000   0.6250000), wk =   0.0156250
        k(   55) = (   0.1250000   0.1250000  -0.6250000), wk =   0.0156250
        k(   56) = (   0.7500000   0.2500000   0.7500000), wk =   0.0312500
        k(   57) = (  -0.7500000   0.7500000  -0.2500000), wk =   0.0156250
        k(   58) = (  -0.7500000  -0.7500000   0.2500000), wk =   0.0156250
        k(   59) = (   0.6250000   0.1250000   0.6250000), wk =   0.0312500
        k(   60) = (  -0.6250000   0.6250000  -0.1250000), wk =   0.0156250
        k(   61) = (  -0.6250000  -0.6250000   0.1250000), wk =   0.0156250
        k(   62) = (  -0.5000000   0.5000000   0.0000000), wk =   0.0078125
        k(   63) = (  -0.5000000  -0.5000000   0.0000000), wk =   0.0078125
        k(   64) = (   0.0000000   0.0000000   0.7500000), wk =   0.0078125
        k(   65) = (   0.8750000   0.1250000   0.8750000), wk =   0.0312500
        k(   66) = (  -0.8750000   0.8750000  -0.1250000), wk =   0.0156250
        k(   67) = (  -0.8750000  -0.8750000   0.1250000), wk =   0.0156250
        k(   68) = (  -0.7500000   0.7500000   0.0000000), wk =   0.0078125
        k(   69) = (  -0.7500000  -0.7500000   0.0000000), wk =   0.0078125
        k(   70) = (   0.0000000   0.0000000  -1.0000000), wk =   0.0039063
        k(   71) = (   0.0000000  -0.5000000  -0.2500000), wk =   0.0312500
        k(   72) = (   0.2500000   0.0000000   0.5000000), wk =   0.0312500
        k(   73) = (   0.2500000   0.5000000   0.0000000), wk =   0.0156250
        k(   74) = (   0.8750000   0.3750000   0.6250000), wk =   0.0312500
        k(   75) = (  -0.8750000   0.3750000  -0.6250000), wk =   0.0312500
        k(   76) = (  -0.6250000   0.8750000  -0.3750000), wk =   0.0312500
        k(   77) = (  -0.6250000  -0.8750000   0.3750000), wk =   0.0312500
        k(   78) = (  -0.6250000  -0.3750000  -0.8750000), wk =   0.0312500
        k(   79) = (   0.7500000   0.2500000   0.5000000), wk =   0.0156250
        k(   80) = (  -0.7500000   0.2500000  -0.5000000), wk =   0.0156250
        k(   81) = (  -0.5000000  -0.7500000   0.2500000), wk =   0.0312500
        k(   82) = (   1.0000000   0.2500000   0.7500000), wk =   0.0312500
        k(   83) = (  -0.7500000   1.0000000  -0.2500000), wk =   0.0312500
        k(   84) = (  -0.7500000  -0.2500000  -1.0000000), wk =   0.0156250
        k(   85) = (   0.8750000   0.1250000   0.6250000), wk =   0.0312500
        k(   86) = (  -0.8750000   0.1250000  -0.6250000), wk =   0.0312500
        k(   87) = (  -0.6250000   0.8750000  -0.1250000), wk =   0.0312500
        k(   88) = (  -0.6250000  -0.8750000   0.1250000), wk =   0.0312500
        k(   89) = (  -0.6250000  -0.1250000  -0.8750000), wk =   0.0312500
        k(   90) = (   0.7500000   0.0000000   0.5000000), wk =   0.0312500
        k(   91) = (  -0.5000000   0.7500000   0.0000000), wk =   0.0156250
        k(   92) = (  -0.5000000  -0.7500000   0.0000000), wk =   0.0156250
        k(   93) = (   0.0000000   1.0000000  -0.2500000), wk =   0.0156250
        k(   94) = (   0.2500000   0.0000000  -1.0000000), wk =   0.0156250
        k(   95) = (   0.0000000   1.0000000  -0.5000000), wk =   0.0078125

     Dense  grid:    17261 G-vectors     FFT dimensions: (  40,  40,  40)

     Largest allocated arrays     est. size (Mb)     dimensions
        Kohn-Sham Wavefunctions         0.13 Mb     (   2200,    4)
        NL pseudopotentials             0.54 Mb     (   2200,   16)
        Each V/rho on FFT grid          0.98 Mb     (  64000)
        Each G-vector array             0.13 Mb     (  17261)
        G-vector shells                 0.00 Mb     (    218)
     Largest temporary arrays     est. size (Mb)     dimensions
        Auxiliary wavefunctions         0.54 Mb     (   2200,   16)
        Each subspace H/S matrix        0.00 Mb     (  16,  16)
        Each <psi_i|beta_j> matrix      0.00 Mb     (     16,    4)
        Arrays for rho mixing           7.81 Mb     (  64000,   8)

     Initial potential from superposition of free atoms

     starting charge    7.99993, renormalised to    8.00000
     Starting wfc are    8 atomic wfcs

     total cpu time spent up to now is        4.4 secs

     per-process dynamical memory:    12.1 Mb

     Self-consistent Calculation

     iteration #  1     ecut=   140.00 Ry     beta=0.70
     Davidson diagonalization with overlap
     ethr =  1.00E-02,  avg # of iterations =  2.8

     total cpu time spent up to now is       10.4 secs

     total energy              =     -35.55418748 Ry
     Harris-Foulkes estimate   =     -35.60365394 Ry
     estimated scf accuracy    <       0.09121477 Ry

     iteration #  2     ecut=   140.00 Ry     beta=0.70
     Davidson diagonalization with overlap
     ethr =  1.14E-03,  avg # of iterations =  2.9

     total cpu time spent up to now is       17.2 secs

     total energy              =     -35.58282157 Ry
     Harris-Foulkes estimate   =     -35.58755399 Ry
     estimated scf accuracy    <       0.00903260 Ry

     iteration #  3     ecut=   140.00 Ry     beta=0.70
     Davidson diagonalization with overlap
     ethr =  1.13E-04,  avg # of iterations =  2.7

     total cpu time spent up to now is       23.5 secs

     total energy              =     -35.58590680 Ry
     Harris-Foulkes estimate   =     -35.58641203 Ry
     estimated scf accuracy    <       0.00078760 Ry

     iteration #  4     ecut=   140.00 Ry     beta=0.70
     Davidson diagonalization with overlap
     ethr =  9.84E-06,  avg # of iterations =  3.0

     total cpu time spent up to now is       31.0 secs

     total energy              =     -35.58620888 Ry
     Harris-Foulkes estimate   =     -35.58620965 Ry
     estimated scf accuracy    <       0.00001618 Ry

     iteration #  5     ecut=   140.00 Ry     beta=0.70
     Davidson diagonalization with overlap
     ethr =  2.02E-07,  avg # of iterations =  3.2

     total cpu time spent up to now is       37.6 secs

     total energy              =     -35.58621653 Ry
     Harris-Foulkes estimate   =     -35.58622143 Ry
     estimated scf accuracy    <       0.00000721 Ry

     iteration #  6     ecut=   140.00 Ry     beta=0.70
     Davidson diagonalization with overlap
     ethr =  9.01E-08,  avg # of iterations =  2.8

     total cpu time spent up to now is       43.7 secs

     End of self-consistent calculation

          k = 0.0000 0.0000 0.0000 (  2109 PWs)   bands (ev):

    -8.3046  10.2533  13.3765  15.6224

          k =-0.1250 0.1250-0.1250 (  2139 PWs)   bands (ev):

    -7.8767   9.8996  11.1425  13.7740

          k =-0.2500 0.2500-0.2500 (  2154 PWs)   bands (ev):

    -6.6100   6.8657   9.1814  12.6049

          k =-0.3750 0.3750-0.3750 (  2153 PWs)   bands (ev):

    -4.5993   2.7738   8.5920  11.9123

          k = 0.5000-0.5000 0.5000 (  2138 PWs)   bands (ev):

    -2.8272   0.2767   8.3747  11.6842

          k = 0.0000 0.2500 0.0000 (  2137 PWs)   bands (ev):

    -7.7381   9.1678  11.4878  13.4696

          k =-0.1250 0.3750-0.1250 (  2149 PWs)   bands (ev):

    -6.7513   8.4882   8.6580  11.4879

          k =-0.2500 0.5000-0.2500 (  2150 PWs)   bands (ev):

    -4.9786   4.3918   7.9292  10.6920

          k = 0.6250-0.3750 0.6250 (  2156 PWs)   bands (ev):

    -2.8223   1.0582   7.3717  10.5400

          k = 0.5000-0.2500 0.5000 (  2149 PWs)   bands (ev):

    -3.4879   1.9394   7.1603  11.0204

          k = 0.3750-0.1250 0.3750 (  2155 PWs)   bands (ev):

    -5.6453   5.6550   7.4165  11.9445

          k = 0.2500 0.0000 0.2500 (  2131 PWs)   bands (ev):

    -7.1717   8.0580   9.7809  12.9269

          k = 0.0000 0.5000 0.0000 (  2141 PWs)   bands (ev):

    -6.0598   6.9210   9.0542  10.3367

          k =-0.1250 0.6250-0.1250 (  2147 PWs)   bands (ev):

    -4.5627   5.9608   6.5686   8.8626

          k = 0.7500-0.2500 0.7500 (  2156 PWs)   bands (ev):

    -2.4781   2.9294   5.1704   8.6791

          k = 0.6250-0.1250 0.6250 (  2170 PWs)   bands (ev):

    -1.8396   2.0737   4.4335   9.2451

          k = 0.5000 0.0000 0.5000 (  2151 PWs)   bands (ev):

    -3.9047   4.0633   5.3383  10.3247

          k = 0.0000 0.7500 0.0000 (  2152 PWs)   bands (ev):

    -3.3521   3.9208   7.4410   7.8251

          k = 0.8750-0.1250 0.8750 (  2167 PWs)   bands (ev):

    -1.4954   2.3715   5.5963   7.3904

          k = 0.7500 0.0000 0.7500 (  2149 PWs)   bands (ev):

    -0.0586   1.2048   3.8241   7.8978

          k = 0.0000-1.0000 0.0000 (  2200 PWs)   bands (ev):

     0.1659   0.1659   6.9480   6.9480

          k =-0.2500 0.5000 0.0000 (  2155 PWs)   bands (ev):

    -5.5101   7.4697   7.8802   8.2111

          k = 0.6250-0.3750 0.8750 (  2165 PWs)   bands (ev):

    -3.5607   3.8004   7.1098   7.5889

          k = 0.5000-0.2500 0.7500 (  2174 PWs)   bands (ev):

    -1.8698   1.3599   6.3180   8.0646

          k = 0.7500-0.2500 1.0000 (  2170 PWs)   bands (ev):

    -2.8866   4.6284   6.0800   6.3292

          k = 0.6250-0.1250 0.8750 (  2171 PWs)   bands (ev):

    -0.9329   2.7180   4.0346   6.6092

          k = 0.5000 0.0000 0.7500 (  2172 PWs)   bands (ev):

    -1.4717   2.5984   3.9745   7.7530

          k =-0.2500-1.0000 0.0000 (  2166 PWs)   bands (ev):

     0.2910   0.7146   5.6952   6.0580

          k =-0.5000-1.0000 0.0000 (  2180 PWs)   bands (ev):

     0.4430   1.7623   3.9351   5.3726

          k =-0.1250-0.1250-0.1250 (  2139 PWs)   bands (ev):

    -7.8803   8.8865  12.1886  14.0912

          k =-0.2500-0.2500-0.2500 (  2154 PWs)   bands (ev):

    -6.6180   5.5927  10.5974  12.7203

          k =-0.3750-0.3750-0.3750 (  2153 PWs)   bands (ev):

    -4.5608   1.8472   9.6231  11.8942

          k = 0.5000 0.5000 0.5000 (  2138 PWs)   bands (ev):

    -2.2734  -1.0600   9.2987  11.6224

          k = 0.0000 0.0000 0.2500 (  2137 PWs)   bands (ev):

    -7.7341   9.2608  11.9371  12.3980

          k =-0.1250-0.3750-0.1250 (  2149 PWs)   bands (ev):

    -6.7585   6.6999   9.9790  12.5668

          k = 0.1250-0.1250 0.3750 (  2149 PWs)   bands (ev):

    -6.7457   8.2979   8.4296  11.9456

          k = 0.1250 0.1250-0.3750 (  2149 PWs)   bands (ev):

    -6.7477   6.9989  10.4703  11.0940

          k =-0.2500-0.5000-0.2500 (  2150 PWs)   bands (ev):

    -4.9677   3.2585   8.9390  11.1873

          k = 0.2500-0.2500 0.5000 (  2150 PWs)   bands (ev):

    -4.9671   4.2570   7.8986  10.8877

          k = 0.2500 0.2500-0.5000 (  2150 PWs)   bands (ev):

    -4.9540   3.3800   9.1109  10.4803

          k = 0.6250 0.3750 0.6250 (  2156 PWs)   bands (ev):

    -2.5071  -0.1109   8.5224  10.3702

          k =-0.6250 0.6250-0.3750 (  2156 PWs)   bands (ev):

    -2.8053   1.0052   7.8620   9.8917

          k =-0.6250-0.6250 0.3750 (  2156 PWs)   bands (ev):

    -2.5015  -0.0785   8.1609  10.6092

          k = 0.5000 0.2500 0.5000 (  2149 PWs)   bands (ev):

    -3.3701   0.9810   8.4852  10.4842

          k =-0.5000 0.5000-0.2500 (  2149 PWs)   bands (ev):

    -3.5008   1.9930   8.3134   9.3495

          k =-0.5000-0.5000 0.2500 (  2149 PWs)   bands (ev):

    -3.3733   0.9465   7.8336  11.4354

          k = 0.3750 0.1250 0.3750 (  2155 PWs)   bands (ev):

    -5.6443   4.5928   8.8566  11.4708

          k =-0.3750 0.3750-0.1250 (  2155 PWs)   bands (ev):

    -5.6489   5.8012   9.0858   9.4362

          k =-0.3750-0.3750 0.1250 (  2155 PWs)   bands (ev):

    -5.6559   4.3846   8.3387  12.8296

          k =-0.2500 0.2500 0.0000 (  2131 PWs)   bands (ev):

    -7.1696   9.6930   9.7990  10.5812

          k =-0.2500-0.2500 0.0000 (  2131 PWs)   bands (ev):

    -7.1815   7.2194  10.1098  14.4038

          k = 0.0000 0.0000 0.5000 (  2141 PWs)   bands (ev):

    -6.0427   7.4739   8.6668   9.6524

          k =-0.1250-0.6250-0.1250 (  2147 PWs)   bands (ev):

    -4.5563   4.4748   7.9327   9.2774

          k = 0.1250-0.1250 0.6250 (  2147 PWs)   bands (ev):

    -4.5353   5.7070   6.8627   8.5523

          k = 0.1250 0.1250-0.6250 (  2147 PWs)   bands (ev):

    -4.5304   5.1227   7.1191   8.8974

          k = 0.7500 0.2500 0.7500 (  2156 PWs)   bands (ev):

    -2.3204   1.5697   6.7017   8.4955

          k =-0.7500 0.7500-0.2500 (  2156 PWs)   bands (ev):

    -2.4337   2.6233   6.8181   6.9753

          k =-0.7500-0.7500 0.2500 (  2156 PWs)   bands (ev):

    -2.3048   1.8491   5.7339   8.9450

          k = 0.6250 0.1250 0.6250 (  2170 PWs)   bands (ev):

    -1.5613   0.8431   5.6296   9.0152

          k =-0.6250 0.6250-0.1250 (  2170 PWs)   bands (ev):

    -1.8922   2.1298   5.8312   7.3445

          k =-0.6250-0.6250 0.1250 (  2170 PWs)   bands (ev):

    -1.4892   0.7681   4.9424   9.7825

          k =-0.5000 0.5000 0.0000 (  2151 PWs)   bands (ev):

    -3.9380   5.4142   5.4442   8.2536

          k =-0.5000-0.5000 0.0000 (  2151 PWs)   bands (ev):

    -3.8957   3.2336   5.5712  11.2651

          k = 0.0000 0.0000 0.7500 (  2152 PWs)   bands (ev):

    -3.3113   4.6076   6.1204   7.9240

          k = 0.8750 0.1250 0.8750 (  2167 PWs)   bands (ev):

    -1.4041   1.8714   6.1334   7.3424

          k =-0.8750 0.8750-0.1250 (  2167 PWs)   bands (ev):

    -1.4413   2.5951   5.9554   6.3496

          k =-0.8750-0.8750 0.1250 (  2167 PWs)   bands (ev):

    -1.3925   2.5970   4.6074   7.7538

          k =-0.7500 0.7500 0.0000 (  2149 PWs)   bands (ev):

    -0.4314   2.1455   4.2826   6.4135

          k =-0.7500-0.7500 0.0000 (  2149 PWs)   bands (ev):

     0.6342   0.7307   2.9814   8.4089

          k = 0.0000 0.0000-1.0000 (  2200 PWs)   bands (ev):

    -0.2506   1.0191   5.6354   7.3360

          k = 0.0000-0.5000-0.2500 (  2155 PWs)   bands (ev):

    -5.5099   5.8832   7.5206  10.7481

          k = 0.2500 0.0000 0.5000 (  2155 PWs)   bands (ev):

    -5.4968   6.1290   7.2889  10.4367

          k = 0.2500 0.5000 0.0000 (  2155 PWs)   bands (ev):

    -5.5164   5.0866   7.7810  11.7137

          k = 0.8750 0.3750 0.6250 (  2165 PWs)   bands (ev):

    -3.5002   2.5727   7.2573   9.0576

          k =-0.8750 0.3750-0.6250 (  2165 PWs)   bands (ev):

    -3.5461   3.7084   5.5123   9.7454

          k =-0.6250 0.8750-0.3750 (  2165 PWs)   bands (ev):

    -3.5257   3.5391   5.9963   9.1688

          k =-0.6250-0.8750 0.3750 (  2165 PWs)   bands (ev):

    -3.4840   2.7246   6.6738   9.3225

          k =-0.6250-0.3750-0.8750 (  2165 PWs)   bands (ev):

    -3.4929   2.4573   6.4825  10.1634

          k = 0.7500 0.2500 0.5000 (  2174 PWs)   bands (ev):

    -1.2929  -0.1352   7.6924   7.8877

          k =-0.7500 0.2500-0.5000 (  2174 PWs)   bands (ev):

    -1.8744   1.4085   5.3465   9.3338

          k =-0.5000-0.7500 0.2500 (  2174 PWs)   bands (ev):

    -1.2746  -0.0983   6.3651   9.1902

          k = 1.0000 0.2500 0.7500 (  2170 PWs)   bands (ev):

    -2.8530   3.5716   6.0988   7.5828

          k =-0.7500 1.0000-0.2500 (  2170 PWs)   bands (ev):

    -2.8169   4.1502   5.3008   7.4519

          k =-0.7500-0.2500-1.0000 (  2170 PWs)   bands (ev):

    -2.8194   3.0142   6.2040   8.1351

          k = 0.8750 0.1250 0.6250 (  2171 PWs)   bands (ev):

    -0.5605   1.1483   5.4517   6.5545

          k =-0.8750 0.1250-0.6250 (  2171 PWs)   bands (ev):

    -0.8795   2.4714   3.7521   7.2599

          k =-0.6250 0.8750-0.1250 (  2171 PWs)   bands (ev):

    -0.8796   2.4295   5.0148   5.7163

          k =-0.6250-0.8750 0.1250 (  2171 PWs)   bands (ev):

    -0.5488   1.5719   4.0190   7.4339

          k =-0.6250-0.1250-0.8750 (  2171 PWs)   bands (ev):

    -0.4645   1.0785   4.7851   7.2063

          k = 0.7500 0.0000 0.5000 (  2172 PWs)   bands (ev):

    -1.4905   2.3935   4.2155   7.8564

          k =-0.5000 0.7500 0.0000 (  2172 PWs)   bands (ev):

    -1.6356   3.6516   4.3669   6.1910

          k =-0.5000-0.7500 0.0000 (  2172 PWs)   bands (ev):

    -1.3122   1.7556   4.0936   8.4919

          k = 0.0000 1.0000-0.2500 (  2166 PWs)   bands (ev):

     0.4783   0.4783   5.9205   5.9205

          k = 0.2500 0.0000-1.0000 (  2166 PWs)   bands (ev):

     0.0229   1.4508   4.6295   6.3829

          k = 0.0000 1.0000-0.5000 (  2180 PWs)   bands (ev):

     0.8831   0.8831   4.9398   4.9398

!    total energy              =     -35.58621770 Ry
     Harris-Foulkes estimate   =     -35.58621799 Ry
     estimated scf accuracy    <       0.00000017 Ry

     total all-electron energy =      -151.145214 Ry

     The total energy is the sum of the following terms:

     one-electron contribution =       8.30515288 Ry
     hartree contribution      =       1.95543680 Ry
     xc contribution           =      -8.37094021 Ry
     ewald contribution        =     -25.40341134 Ry
     one-center paw contrib.   =     -12.07245583 Ry

     convergence has been achieved in   6 iterations

     Forces acting on atoms (Ry/au):

     atom    1 type  1   force =     0.00000000    0.00000000   -0.23175966
     atom    2 type  1   force =     0.00000000    0.00000000    0.23175966

     Total force =     0.327758     Total SCF correction =     0.000182

     Writing output data file diamond.save

     init_run     :      4.17s CPU      4.16s WALL (       1 calls)
     electrons    :     40.88s CPU     39.27s WALL (       1 calls)
     forces       :      0.67s CPU      0.53s WALL (       1 calls)

     Called by init_run:
     wfcinit      :      3.36s CPU      3.30s WALL (       1 calls)
     potinit      :      0.06s CPU      0.06s WALL (       1 calls)

     Called by electrons:
     c_bands      :     34.72s CPU     33.12s WALL (       6 calls)
     sum_band     :      5.58s CPU      5.46s WALL (       6 calls)
     v_of_rho     :      0.11s CPU      0.11s WALL (       7 calls)
     newd         :      0.22s CPU      0.24s WALL (       7 calls)
     mix_rho      :      0.10s CPU      0.10s WALL (       6 calls)

     Called by c_bands:
     init_us_2    :      1.56s CPU      1.68s WALL (    1330 calls)
     cegterg      :     33.03s CPU     30.24s WALL (     570 calls)

     Called by *egterg:
     h_psi        :     29.23s CPU     28.43s WALL (    2317 calls)
     s_psi        :      1.92s CPU      1.11s WALL (    2317 calls)
     g_psi        :      0.18s CPU      0.16s WALL (    1652 calls)
     cdiaghg      :      0.41s CPU      0.45s WALL (    2222 calls)

     Called by h_psi:
     add_vuspsi   :      1.92s CPU      1.18s WALL (    2317 calls)

     General routines
     calbec       :      2.87s CPU      1.74s WALL (    2982 calls)
     fft          :      0.10s CPU      0.11s WALL (      45 calls)
     fftw         :     25.08s CPU     25.80s WALL (   17540 calls)
     davcio       :      0.21s CPU      1.31s WALL (    1900 calls)


     PAW routines
     PAW_pot      :      0.20s CPU      0.20s WALL (       7 calls)
     PAW_ddot     :      0.07s CPU      0.07s WALL (      36 calls)
     PAW_symme    :      0.00s CPU      0.00s WALL (      13 calls)

     PWSCF        :    46.21s CPU        44.57s WALL


   This run was terminated on:  21:45:15  26Mar2012            

=------------------------------------------------------------------------------=
   JOB DONE.
=------------------------------------------------------------------------------=
