
     Program PWSCF v.4.3.2      starts on 26Mar2012 at 21:41:28 

     This program is part of the open-source Quantum ESPRESSO suite
     for quantum simulation of materials; please cite
         "P. Giannozzi et al., J. Phys.:Condens. Matter 21 395502 (2009);
          URL http://www.quantum-espresso.org", 
     in publications or presentations arising from this work. More details at
     http://www.quantum-espresso.org/wiki/index.php/Citing_Quantum-ESPRESSO

     Current dimensions of program PWSCF are:
     Max number of different atomic species (ntypx) = 10
     Max number of k-points (npk) =  40000
     Max angular momentum in pseudopotentials (lmaxx) =  3
     Waiting for input...
     Reading input from stdin
     warning: symmetry operation #  5 not allowed.   fractional translation:
       0.2000000  0.2000000  0.3000000  in crystal coordinates
     warning: symmetry operation #  6 not allowed.   fractional translation:
       0.2000000  0.2000000  0.3000000  in crystal coordinates
     warning: symmetry operation # 25 not allowed.   fractional translation:
       0.2000000  0.2000000  0.3000000  in crystal coordinates
     warning: symmetry operation # 26 not allowed.   fractional translation:
       0.2000000  0.2000000  0.3000000  in crystal coordinates

     G-vector sticks info
     --------------------
     sticks:   dense  smooth     PW     G-vecs:    dense   smooth      PW
     Sum         859     859    253                16865    16865    2741



     bravais-lattice index     =            2
     lattice parameter (alat)  =       6.7100  a.u.
     unit-cell volume          =      75.5279 (a.u.)^3
     number of atoms/cell      =            2
     number of atomic types    =            1
     number of electrons       =         8.00
     number of Kohn-Sham states=            4
     kinetic-energy cutoff     =     140.0000  Ry
     charge density cutoff     =     560.0000  Ry
     convergence threshold     =      1.0E-06
     mixing beta               =       0.7000
     number of iterations used =            8  plain     mixing
     Exchange-correlation      =  SLA  PZ   NOGX NOGC ( 1 1 0 0 0)
     EXX-fraction              =        0.00

     celldm(1)=   6.710000  celldm(2)=   0.000000  celldm(3)=   0.000000
     celldm(4)=   0.000000  celldm(5)=   0.000000  celldm(6)=   0.000000

     crystal axes: (cart. coord. in units of alat)
               a(1) = (  -0.500000   0.000000   0.500000 )  
               a(2) = (   0.000000   0.500000   0.500000 )  
               a(3) = (  -0.500000   0.500000   0.000000 )  

     reciprocal axes: (cart. coord. in units 2 pi/alat)
               b(1) = ( -1.000000 -1.000000  1.000000 )  
               b(2) = (  1.000000  1.000000  1.000000 )  
               b(3) = ( -1.000000  1.000000 -1.000000 )  


     PseudoPot. # 1 for  C read from file:
     /home/mullspace/Documents/espresso-4.3.2/pseudo/C.pz-kjpaw.UPF
     MD5 check sum: 414e6e825ae75add557e798061b49a04
     Pseudo is Projector augmented-wave + core cor, Zval =  4.0
     Generated using "atomic" code by A. Dal Corso (espresso distribution)
     Shape of augmentation charge: BESSEL
     Using radial grid of 1073 points,  4 beta functions with: 
                l(1) =   0
                l(2) =   0
                l(3) =   1
                l(4) =   1
     Q(r) pseudized with 0 coefficients 


     atomic species   valence    mass     pseudopotential
        C              4.00    12.01070      C( 1.00)

      4 Sym.Ops. (no inversion)


   Cartesian axes

     site n.     atom                  positions (alat units)
         1           C   tau(   1) = (   0.0000000   0.0000000   0.0500000  )
         2           C   tau(   2) = (   0.2500000   0.2500000   0.2500000  )

     number of k points=    95
                       cart. coord. in units 2pi/alat
        k(    1) = (   0.0000000   0.0000000   0.0000000), wk =   0.0039063
        k(    2) = (  -0.1250000   0.1250000  -0.1250000), wk =   0.0156250
        k(    3) = (  -0.2500000   0.2500000  -0.2500000), wk =   0.0156250
        k(    4) = (  -0.3750000   0.3750000  -0.3750000), wk =   0.0156250
        k(    5) = (   0.5000000  -0.5000000   0.5000000), wk =   0.0078125
        k(    6) = (   0.0000000   0.2500000   0.0000000), wk =   0.0156250
        k(    7) = (  -0.1250000   0.3750000  -0.1250000), wk =   0.0312500
        k(    8) = (  -0.2500000   0.5000000  -0.2500000), wk =   0.0312500
        k(    9) = (   0.6250000  -0.3750000   0.6250000), wk =   0.0312500
        k(   10) = (   0.5000000  -0.2500000   0.5000000), wk =   0.0312500
        k(   11) = (   0.3750000  -0.1250000   0.3750000), wk =   0.0312500
        k(   12) = (   0.2500000   0.0000000   0.2500000), wk =   0.0312500
        k(   13) = (   0.0000000   0.5000000   0.0000000), wk =   0.0156250
        k(   14) = (  -0.1250000   0.6250000  -0.1250000), wk =   0.0312500
        k(   15) = (   0.7500000  -0.2500000   0.7500000), wk =   0.0312500
        k(   16) = (   0.6250000  -0.1250000   0.6250000), wk =   0.0312500
        k(   17) = (   0.5000000   0.0000000   0.5000000), wk =   0.0312500
        k(   18) = (   0.0000000   0.7500000   0.0000000), wk =   0.0156250
        k(   19) = (   0.8750000  -0.1250000   0.8750000), wk =   0.0312500
        k(   20) = (   0.7500000   0.0000000   0.7500000), wk =   0.0312500
        k(   21) = (   0.0000000  -1.0000000   0.0000000), wk =   0.0078125
        k(   22) = (  -0.2500000   0.5000000   0.0000000), wk =   0.0156250
        k(   23) = (   0.6250000  -0.3750000   0.8750000), wk =   0.0312500
        k(   24) = (   0.5000000  -0.2500000   0.7500000), wk =   0.0312500
        k(   25) = (   0.7500000  -0.2500000   1.0000000), wk =   0.0156250
        k(   26) = (   0.6250000  -0.1250000   0.8750000), wk =   0.0312500
        k(   27) = (   0.5000000   0.0000000   0.7500000), wk =   0.0312500
        k(   28) = (  -0.2500000  -1.0000000   0.0000000), wk =   0.0156250
        k(   29) = (  -0.5000000  -1.0000000   0.0000000), wk =   0.0156250
        k(   30) = (   0.1250000   0.1250000  -0.1250000), wk =   0.0156250
        k(   31) = (   0.2500000   0.2500000  -0.2500000), wk =   0.0156250
        k(   32) = (   0.3750000   0.3750000  -0.3750000), wk =   0.0156250
        k(   33) = (  -0.5000000  -0.5000000   0.5000000), wk =   0.0078125
        k(   34) = (   0.0000000   0.0000000   0.2500000), wk =   0.0078125
        k(   35) = (   0.3750000   0.1250000  -0.1250000), wk =   0.0312500
        k(   36) = (   0.1250000  -0.1250000   0.3750000), wk =   0.0156250
        k(   37) = (   0.1250000   0.1250000  -0.3750000), wk =   0.0156250
        k(   38) = (   0.5000000   0.2500000  -0.2500000), wk =   0.0312500
        k(   39) = (   0.2500000  -0.2500000   0.5000000), wk =   0.0156250
        k(   40) = (   0.2500000   0.2500000  -0.5000000), wk =   0.0156250
        k(   41) = (  -0.3750000  -0.6250000   0.6250000), wk =   0.0312500
        k(   42) = (  -0.6250000   0.6250000  -0.3750000), wk =   0.0156250
        k(   43) = (  -0.6250000  -0.6250000   0.3750000), wk =   0.0156250
        k(   44) = (  -0.2500000  -0.5000000   0.5000000), wk =   0.0312500
        k(   45) = (  -0.5000000   0.5000000  -0.2500000), wk =   0.0156250
        k(   46) = (  -0.5000000  -0.5000000   0.2500000), wk =   0.0156250
        k(   47) = (  -0.1250000  -0.3750000   0.3750000), wk =   0.0312500
        k(   48) = (  -0.3750000   0.3750000  -0.1250000), wk =   0.0156250
        k(   49) = (  -0.3750000  -0.3750000   0.1250000), wk =   0.0156250
        k(   50) = (  -0.2500000   0.2500000   0.0000000), wk =   0.0078125
        k(   51) = (  -0.2500000  -0.2500000   0.0000000), wk =   0.0078125
        k(   52) = (   0.0000000   0.0000000   0.5000000), wk =   0.0078125
        k(   53) = (   0.6250000   0.1250000  -0.1250000), wk =   0.0312500
        k(   54) = (   0.1250000  -0.1250000   0.6250000), wk =   0.0156250
        k(   55) = (   0.1250000   0.1250000  -0.6250000), wk =   0.0156250
        k(   56) = (  -0.2500000  -0.7500000   0.7500000), wk =   0.0312500
        k(   57) = (  -0.7500000   0.7500000  -0.2500000), wk =   0.0156250
        k(   58) = (  -0.7500000  -0.7500000   0.2500000), wk =   0.0156250
        k(   59) = (  -0.1250000  -0.6250000   0.6250000), wk =   0.0312500
        k(   60) = (  -0.6250000   0.6250000  -0.1250000), wk =   0.0156250
        k(   61) = (  -0.6250000  -0.6250000   0.1250000), wk =   0.0156250
        k(   62) = (  -0.5000000   0.5000000   0.0000000), wk =   0.0078125
        k(   63) = (  -0.5000000  -0.5000000   0.0000000), wk =   0.0078125
        k(   64) = (   0.0000000   0.0000000   0.7500000), wk =   0.0078125
        k(   65) = (  -0.1250000  -0.8750000   0.8750000), wk =   0.0312500
        k(   66) = (  -0.8750000   0.8750000  -0.1250000), wk =   0.0156250
        k(   67) = (  -0.8750000  -0.8750000   0.1250000), wk =   0.0156250
        k(   68) = (  -0.7500000   0.7500000   0.0000000), wk =   0.0078125
        k(   69) = (  -0.7500000  -0.7500000   0.0000000), wk =   0.0078125
        k(   70) = (   0.0000000   0.0000000  -1.0000000), wk =   0.0039063
        k(   71) = (   0.5000000   0.2500000   0.0000000), wk =   0.0156250
        k(   72) = (   0.0000000  -0.5000000  -0.2500000), wk =   0.0312500
        k(   73) = (   0.2500000   0.0000000   0.5000000), wk =   0.0312500
        k(   74) = (  -0.3750000  -0.6250000   0.8750000), wk =   0.0312500
        k(   75) = (   0.8750000   0.3750000   0.6250000), wk =   0.0312500
        k(   76) = (  -0.8750000   0.3750000  -0.6250000), wk =   0.0312500
        k(   77) = (  -0.6250000   0.8750000  -0.3750000), wk =   0.0312500
        k(   78) = (  -0.6250000  -0.8750000   0.3750000), wk =   0.0312500
        k(   79) = (  -0.2500000  -0.5000000   0.7500000), wk =   0.0312500
        k(   80) = (   0.7500000   0.2500000   0.5000000), wk =   0.0156250
        k(   81) = (  -0.7500000   0.2500000  -0.5000000), wk =   0.0156250
        k(   82) = (  -0.2500000  -0.7500000   1.0000000), wk =   0.0156250
        k(   83) = (   1.0000000   0.2500000   0.7500000), wk =   0.0312500
        k(   84) = (  -0.7500000   1.0000000  -0.2500000), wk =   0.0312500
        k(   85) = (  -0.1250000  -0.6250000   0.8750000), wk =   0.0312500
        k(   86) = (   0.8750000   0.1250000   0.6250000), wk =   0.0312500
        k(   87) = (  -0.8750000   0.1250000  -0.6250000), wk =   0.0312500
        k(   88) = (  -0.6250000   0.8750000  -0.1250000), wk =   0.0312500
        k(   89) = (  -0.6250000  -0.8750000   0.1250000), wk =   0.0312500
        k(   90) = (   0.7500000   0.0000000   0.5000000), wk =   0.0312500
        k(   91) = (  -0.5000000   0.7500000   0.0000000), wk =   0.0156250
        k(   92) = (  -0.5000000  -0.7500000   0.0000000), wk =   0.0156250
        k(   93) = (   0.0000000   1.0000000  -0.2500000), wk =   0.0156250
        k(   94) = (   0.2500000   0.0000000  -1.0000000), wk =   0.0156250
        k(   95) = (   0.0000000   1.0000000  -0.5000000), wk =   0.0078125

     Dense  grid:    16865 G-vectors     FFT dimensions: (  36,  36,  36)

     Largest allocated arrays     est. size (Mb)     dimensions
        Kohn-Sham Wavefunctions         0.13 Mb     (   2148,    4)
        NL pseudopotentials             0.52 Mb     (   2148,   16)
        Each V/rho on FFT grid          0.71 Mb     (  46656)
        Each G-vector array             0.13 Mb     (  16865)
        G-vector shells                 0.00 Mb     (    214)
     Largest temporary arrays     est. size (Mb)     dimensions
        Auxiliary wavefunctions         0.52 Mb     (   2148,   16)
        Each subspace H/S matrix        0.00 Mb     (  16,  16)
        Each <psi_i|beta_j> matrix      0.00 Mb     (     16,    4)
        Arrays for rho mixing           5.70 Mb     (  46656,   8)

     Initial potential from superposition of free atoms

     starting charge    7.99993, renormalised to    8.00000
     Starting wfc are    8 atomic wfcs

     total cpu time spent up to now is        3.5 secs

     per-process dynamical memory:    10.7 Mb

     Self-consistent Calculation

     iteration #  1     ecut=   140.00 Ry     beta=0.70
     Davidson diagonalization with overlap
     ethr =  1.00E-02,  avg # of iterations =  2.9

     total cpu time spent up to now is        8.2 secs

     total energy              =     -35.55550840 Ry
     Harris-Foulkes estimate   =     -35.61081370 Ry
     estimated scf accuracy    <       0.10073643 Ry

     iteration #  2     ecut=   140.00 Ry     beta=0.70
     Davidson diagonalization with overlap
     ethr =  1.26E-03,  avg # of iterations =  2.9

     total cpu time spent up to now is       13.4 secs

     total energy              =     -35.58211292 Ry
     Harris-Foulkes estimate   =     -35.58657856 Ry
     estimated scf accuracy    <       0.00856911 Ry

     iteration #  3     ecut=   140.00 Ry     beta=0.70
     Davidson diagonalization with overlap
     ethr =  1.07E-04,  avg # of iterations =  2.7

     total cpu time spent up to now is       18.5 secs

     total energy              =     -35.58592494 Ry
     Harris-Foulkes estimate   =     -35.58643469 Ry
     estimated scf accuracy    <       0.00079343 Ry

     iteration #  4     ecut=   140.00 Ry     beta=0.70
     Davidson diagonalization with overlap
     ethr =  9.92E-06,  avg # of iterations =  3.1

     total cpu time spent up to now is       24.3 secs

     total energy              =     -35.58620341 Ry
     Harris-Foulkes estimate   =     -35.58621113 Ry
     estimated scf accuracy    <       0.00002726 Ry

     iteration #  5     ecut=   140.00 Ry     beta=0.70
     Davidson diagonalization with overlap
     ethr =  3.41E-07,  avg # of iterations =  2.6

     total cpu time spent up to now is       29.3 secs

     total energy              =     -35.58620925 Ry
     Harris-Foulkes estimate   =     -35.58621378 Ry
     estimated scf accuracy    <       0.00000626 Ry

     iteration #  6     ecut=   140.00 Ry     beta=0.70
     Davidson diagonalization with overlap
     ethr =  7.82E-08,  avg # of iterations =  3.3

     total cpu time spent up to now is       35.3 secs

     End of self-consistent calculation

          k = 0.0000 0.0000 0.0000 (  2085 PWs)   bands (ev):

    -8.1971  10.6230  13.7861  16.0621

          k =-0.1250 0.1250-0.1250 (  2106 PWs)   bands (ev):

    -7.7623  10.2604  11.5092  14.1767

          k =-0.2500 0.2500-0.2500 (  2100 PWs)   bands (ev):

    -6.4739   7.1618   9.5258  12.9854

          k =-0.3750 0.3750-0.3750 (  2102 PWs)   bands (ev):

    -4.4222   2.9965   8.9240  12.2806

          k = 0.5000-0.5000 0.5000 (  2120 PWs)   bands (ev):

    -2.5834   0.4216   8.7023  12.0488

          k = 0.0000 0.2500 0.0000 (  2105 PWs)   bands (ev):

    -7.6219   9.5239  11.8521  13.8744

          k =-0.1250 0.3750-0.1250 (  2102 PWs)   bands (ev):

    -6.6183   8.8107   8.9985  11.8558

          k =-0.2500 0.5000-0.2500 (  2116 PWs)   bands (ev):

    -4.8120   4.6436   8.2596  11.0403

          k = 0.6250-0.3750 0.6250 (  2104 PWs)   bands (ev):

    -2.5922   1.2294   7.6917  10.8827

          k = 0.5000-0.2500 0.5000 (  2110 PWs)   bands (ev):

    -3.2849   2.1420   7.4743  11.3728

          k = 0.3750-0.1250 0.3750 (  2109 PWs)   bands (ev):

    -5.4931   5.9350   7.7315  12.3167

          k = 0.2500 0.0000 0.2500 (  2111 PWs)   bands (ev):

    -7.0465   8.3903  10.1246  13.3178

          k = 0.0000 0.5000 0.0000 (  2085 PWs)   bands (ev):

    -5.9172   7.2565   9.3680  10.6890

          k =-0.1250 0.6250-0.1250 (  2099 PWs)   bands (ev):

    -4.3925   6.2910   6.8404   9.1755

          k = 0.7500-0.2500 0.7500 (  2113 PWs)   bands (ev):

    -2.2581   3.1548   5.4593   8.9834

          k = 0.6250-0.1250 0.6250 (  2120 PWs)   bands (ev):

    -1.5973   2.2750   4.7046   9.5609

          k = 0.5000 0.0000 0.5000 (  2119 PWs)   bands (ev):

    -3.7229   4.3479   5.5963  10.6642

          k = 0.0000 0.7500 0.0000 (  2104 PWs)   bands (ev):

    -3.1651   4.2311   7.7221   8.1128

          k = 0.8750-0.1250 0.8750 (  2119 PWs)   bands (ev):

    -1.2686   2.6524   5.8411   7.6685

          k = 0.7500 0.0000 0.7500 (  2129 PWs)   bands (ev):

     0.2177   1.4589   4.0180   8.1864

          k = 0.0000-1.0000 0.0000 (  2100 PWs)   bands (ev):

     0.4139   0.4139   7.2174   7.2174

          k =-0.2500 0.5000 0.0000 (  2105 PWs)   bands (ev):

    -5.3544   7.7636   8.1980   8.5460

          k = 0.6250-0.3750 0.8750 (  2113 PWs)   bands (ev):

    -3.3635   4.0387   7.4310   7.8798

          k = 0.5000-0.2500 0.7500 (  2100 PWs)   bands (ev):

    -1.6126   1.5308   6.6164   8.3667

          k = 0.7500-0.2500 1.0000 (  2120 PWs)   bands (ev):

    -2.6817   4.9410   6.3402   6.5900

          k = 0.6250-0.1250 0.8750 (  2121 PWs)   bands (ev):

    -0.6713   2.9740   4.2576   6.8751

          k = 0.5000 0.0000 0.7500 (  2125 PWs)   bands (ev):

    -1.2357   2.8691   4.1972   8.0379

          k =-0.2500-1.0000 0.0000 (  2128 PWs)   bands (ev):

     0.5625   0.9624   5.9446   6.3000

          k =-0.5000-1.0000 0.0000 (  2148 PWs)   bands (ev):

     0.7411   2.0321   4.1416   5.5887

          k = 0.1250 0.1250-0.1250 (  2106 PWs)   bands (ev):

    -7.7666   9.2357  12.5734  14.4967

          k = 0.2500 0.2500-0.2500 (  2100 PWs)   bands (ev):

    -6.4856   5.8928  10.9530  13.1008

          k = 0.3750 0.3750-0.3750 (  2102 PWs)   bands (ev):

    -4.3960   2.0894   9.9626  12.2608

          k =-0.5000-0.5000 0.5000 (  2120 PWs)   bands (ev):

    -2.0448  -0.8909   9.6330  11.9846

          k = 0.0000 0.0000 0.2500 (  2105 PWs)   bands (ev):

    -7.6178   9.6038  12.3442  12.7680

          k = 0.3750 0.1250-0.1250 (  2102 PWs)   bands (ev):

    -6.6281   7.0251  10.3126  12.9548

          k = 0.1250-0.1250 0.3750 (  2102 PWs)   bands (ev):

    -6.6131   8.6261   8.7532  12.3308

          k = 0.1250 0.1250-0.3750 (  2102 PWs)   bands (ev):

    -6.6162   7.3092  10.8524  11.4392

          k = 0.5000 0.2500-0.2500 (  2116 PWs)   bands (ev):

    -4.8102   3.5301   9.2592  11.5485

          k = 0.2500-0.2500 0.5000 (  2116 PWs)   bands (ev):

    -4.8014   4.5140   8.2117  11.2522

          k = 0.2500 0.2500-0.5000 (  2116 PWs)   bands (ev):

    -4.7942   3.6407   9.4616  10.8152

          k =-0.3750-0.6250 0.6250 (  2104 PWs)   bands (ev):

    -2.3020   0.0968   8.8422  10.7126

          k =-0.6250 0.6250-0.3750 (  2104 PWs)   bands (ev):

    -2.5749   1.1783   8.1760  10.2352

          k =-0.6250-0.6250 0.3750 (  2104 PWs)   bands (ev):

    -2.2930   0.1228   8.4875  10.9482

          k =-0.2500-0.5000 0.5000 (  2110 PWs)   bands (ev):

    -3.1825   1.2075   8.8074  10.8273

          k =-0.5000 0.5000-0.2500 (  2110 PWs)   bands (ev):

    -3.2953   2.1933   8.6388   9.6809

          k =-0.5000-0.5000 0.2500 (  2110 PWs)   bands (ev):

    -3.1904   1.1803   8.1454  11.7919

          k =-0.1250-0.3750 0.3750 (  2109 PWs)   bands (ev):

    -5.4956   4.8758   9.1844  11.8338

          k =-0.3750 0.3750-0.1250 (  2109 PWs)   bands (ev):

    -5.4945   6.0758   9.4295   9.7682

          k =-0.3750-0.3750 0.1250 (  2109 PWs)   bands (ev):

    -5.5102   4.6803   8.6463  13.2146

          k =-0.2500 0.2500 0.0000 (  2111 PWs)   bands (ev):

    -7.0430  10.0285  10.1594  10.9345

          k =-0.2500-0.2500 0.0000 (  2111 PWs)   bands (ev):

    -7.0580   7.5577  10.4411  14.8210

          k = 0.0000 0.0000 0.5000 (  2085 PWs)   bands (ev):

    -5.8994   7.7748   9.0435   9.9692

          k = 0.6250 0.1250-0.1250 (  2099 PWs)   bands (ev):

    -4.3915   4.7859   8.2245   9.5980

          k = 0.1250-0.1250 0.6250 (  2099 PWs)   bands (ev):

    -4.3655   6.0163   7.1508   8.8637

          k = 0.1250 0.1250-0.6250 (  2099 PWs)   bands (ev):

    -4.3622   5.4088   7.4470   9.2004

          k =-0.2500-0.7500 0.7500 (  2113 PWs)   bands (ev):

    -2.1188   1.8303   6.9801   8.7969

          k =-0.7500 0.7500-0.2500 (  2113 PWs)   bands (ev):

    -2.2126   2.8557   7.1065   7.2613

          k =-0.7500-0.7500 0.2500 (  2113 PWs)   bands (ev):

    -2.0966   2.0896   6.0262   9.2497

          k =-0.1250-0.6250 0.6250 (  2120 PWs)   bands (ev):

    -1.3320   1.0693   5.8947   9.3277

          k =-0.6250 0.6250-0.1250 (  2120 PWs)   bands (ev):

    -1.6422   2.3250   6.1008   7.6458

          k =-0.6250-0.6250 0.1250 (  2120 PWs)   bands (ev):

    -1.2739   1.0099   5.2050  10.1039

          k =-0.5000 0.5000 0.0000 (  2119 PWs)   bands (ev):

    -3.7485   5.6698   5.7224   8.5769

          k =-0.5000-0.5000 0.0000 (  2119 PWs)   bands (ev):

    -3.7242   3.5377   5.8194  11.6167

          k = 0.0000 0.0000 0.7500 (  2104 PWs)   bands (ev):

    -3.1213   4.9195   6.3923   8.2085

          k =-0.1250-0.8750 0.8750 (  2119 PWs)   bands (ev):

    -1.1874   2.1619   6.3798   7.6191

          k =-0.8750 0.8750-0.1250 (  2119 PWs)   bands (ev):

    -1.2085   2.8665   6.2243   6.5961

          k =-0.8750-0.8750 0.1250 (  2119 PWs)   bands (ev):

    -1.1646   2.8775   4.8469   8.0353

          k =-0.7500 0.7500 0.0000 (  2129 PWs)   bands (ev):

    -0.1385   2.3763   4.4773   6.6930

          k =-0.7500-0.7500 0.0000 (  2129 PWs)   bands (ev):

     0.9179   0.9862   3.1675   8.7032

          k = 0.0000 0.0000-1.0000 (  2100 PWs)   bands (ev):

     0.0263   1.2337   5.8973   7.6097

          k = 0.5000 0.2500 0.0000 (  2105 PWs)   bands (ev):

    -5.3684   5.4080   8.0678  12.0777

          k = 0.0000-0.5000-0.2500 (  2105 PWs)   bands (ev):

    -5.3578   6.1979   7.8160  11.0979

          k = 0.2500 0.0000 0.5000 (  2105 PWs)   bands (ev):

    -5.3441   6.4307   7.5952  10.7868

          k =-0.3750-0.6250 0.8750 (  2113 PWs)   bands (ev):

    -3.3141   2.7330   6.7632  10.4910

          k = 0.8750 0.3750 0.6250 (  2113 PWs)   bands (ev):

    -3.3154   2.8367   7.5472   9.3775

          k =-0.8750 0.3750-0.6250 (  2113 PWs)   bands (ev):

    -3.3534   3.9534   5.8084  10.0660

          k =-0.6250 0.8750-0.3750 (  2113 PWs)   bands (ev):

    -3.3324   3.7883   6.2820   9.4931

          k =-0.6250-0.8750 0.3750 (  2113 PWs)   bands (ev):

    -3.2972   2.9776   6.9780   9.6372

          k =-0.2500-0.5000 0.7500 (  2100 PWs)   bands (ev):

    -1.0329   0.0978   6.6615   9.4960

          k = 0.7500 0.2500 0.5000 (  2100 PWs)   bands (ev):

    -1.0484   0.0615   7.9830   8.1942

          k =-0.7500 0.2500-0.5000 (  2100 PWs)   bands (ev):

    -1.6215   1.5795   5.6471   9.6416

          k =-0.2500-0.7500 1.0000 (  2120 PWs)   bands (ev):

    -2.6294   3.3272   6.4624   8.4144

          k = 1.0000 0.2500 0.7500 (  2120 PWs)   bands (ev):

    -2.6551   3.8774   6.3598   7.8576

          k =-0.7500 1.0000-0.2500 (  2120 PWs)   bands (ev):

    -2.6158   4.4553   5.5593   7.7234

          k =-0.1250-0.6250 0.8750 (  2121 PWs)   bands (ev):

    -0.2310   1.3534   5.0238   7.4683

          k = 0.8750 0.1250 0.6250 (  2121 PWs)   bands (ev):

    -0.3176   1.4125   5.6891   6.8184

          k =-0.8750 0.1250-0.6250 (  2121 PWs)   bands (ev):

    -0.6258   2.7523   3.9592   7.5251

          k =-0.6250 0.8750-0.1250 (  2121 PWs)   bands (ev):

    -0.6145   2.6685   5.2671   5.9603

          k =-0.6250-0.8750 0.1250 (  2121 PWs)   bands (ev):

    -0.2994   1.8258   4.2591   7.7011

          k = 0.7500 0.0000 0.5000 (  2125 PWs)   bands (ev):

    -1.2578   2.6713   4.4350   8.1407

          k =-0.5000 0.7500 0.0000 (  2125 PWs)   bands (ev):

    -1.3880   3.9136   4.5844   6.4693

          k =-0.5000-0.7500 0.0000 (  2125 PWs)   bands (ev):

    -1.0991   2.0534   4.3133   8.7814

          k = 0.0000 1.0000-0.2500 (  2128 PWs)   bands (ev):

     0.7387   0.7387   6.1653   6.1653

          k = 0.2500 0.0000-1.0000 (  2128 PWs)   bands (ev):

     0.3092   1.6817   4.8716   6.6297

          k = 0.0000 1.0000-0.5000 (  2148 PWs)   bands (ev):

     1.1642   1.1642   5.1541   5.1541

!    total energy              =     -35.58621174 Ry
     Harris-Foulkes estimate   =     -35.58621208 Ry
     estimated scf accuracy    <       0.00000066 Ry

     total all-electron energy =      -151.145208 Ry

     The total energy is the sum of the following terms:

     one-electron contribution =       8.55774834 Ry
     hartree contribution      =       1.93225469 Ry
     xc contribution           =      -8.40937244 Ry
     ewald contribution        =     -25.59270651 Ry
     one-center paw contrib.   =     -12.07413582 Ry

     convergence has been achieved in   6 iterations

     Forces acting on atoms (Ry/au):

     atom    1 type  1   force =     0.00000000    0.00000000   -0.24110058
     atom    2 type  1   force =     0.00000000    0.00000000    0.24110058

     Total force =     0.340968     Total SCF correction =     0.000311

     Writing output data file diamond.save

     init_run     :      3.40s CPU      3.29s WALL (       1 calls)
     electrons    :     33.59s CPU     31.82s WALL (       1 calls)
     forces       :      0.65s CPU      0.54s WALL (       1 calls)

     Called by init_run:
     wfcinit      :      2.59s CPU      2.46s WALL (       1 calls)
     potinit      :      0.05s CPU      0.05s WALL (       1 calls)

     Called by electrons:
     c_bands      :     28.76s CPU     27.06s WALL (       6 calls)
     sum_band     :      4.31s CPU      4.14s WALL (       6 calls)
     v_of_rho     :      0.07s CPU      0.08s WALL (       7 calls)
     newd         :      0.22s CPU      0.23s WALL (       7 calls)
     mix_rho      :      0.08s CPU      0.10s WALL (       6 calls)

     Called by c_bands:
     init_us_2    :      1.56s CPU      1.68s WALL (    1330 calls)
     cegterg      :     27.01s CPU     24.12s WALL (     570 calls)

     Called by *egterg:
     h_psi        :     22.54s CPU     21.48s WALL (    2317 calls)
     s_psi        :      1.95s CPU      1.13s WALL (    2317 calls)
     g_psi        :      0.16s CPU      0.17s WALL (    1652 calls)
     cdiaghg      :      0.43s CPU      0.45s WALL (    2222 calls)

     Called by h_psi:
     add_vuspsi   :      2.01s CPU      1.16s WALL (    2317 calls)

     General routines
     calbec       :      2.71s CPU      1.69s WALL (    2982 calls)
     fft          :      0.08s CPU      0.07s WALL (      45 calls)
     fftw         :     18.11s CPU     18.64s WALL (   17916 calls)
     davcio       :      0.16s CPU      1.29s WALL (    1900 calls)


     PAW routines
     PAW_pot      :      0.20s CPU      0.20s WALL (       7 calls)
     PAW_ddot     :      0.06s CPU      0.07s WALL (      36 calls)
     PAW_symme    :      0.00s CPU      0.00s WALL (      13 calls)

     PWSCF        :    38.08s CPU        36.26s WALL


   This run was terminated on:  21:42: 4  26Mar2012            

=------------------------------------------------------------------------------=
   JOB DONE.
=------------------------------------------------------------------------------=
