
     Program PWSCF v.4.3.2      starts on 26Mar2012 at 13:23:57 

     This program is part of the open-source Quantum ESPRESSO suite
     for quantum simulation of materials; please cite
         "P. Giannozzi et al., J. Phys.:Condens. Matter 21 395502 (2009);
          URL http://www.quantum-espresso.org", 
     in publications or presentations arising from this work. More details at
     http://www.quantum-espresso.org/wiki/index.php/Citing_Quantum-ESPRESSO

     Current dimensions of program PWSCF are:
     Max number of different atomic species (ntypx) = 10
     Max number of k-points (npk) =  40000
     Max angular momentum in pseudopotentials (lmaxx) =  3
     Waiting for input...
     Reading input from stdin
     warning: symmetry operation #  5 not allowed.   fractional translation:
       0.2500000  0.2500000  0.2500000  in crystal coordinates
     warning: symmetry operation #  6 not allowed.   fractional translation:
       0.2500000  0.2500000  0.2500000  in crystal coordinates
     warning: symmetry operation #  7 not allowed.   fractional translation:
       0.2500000  0.2500000  0.2500000  in crystal coordinates
     warning: symmetry operation #  8 not allowed.   fractional translation:
       0.2500000  0.2500000  0.2500000  in crystal coordinates
     warning: symmetry operation #  9 not allowed.   fractional translation:
       0.2500000  0.2500000  0.2500000  in crystal coordinates
     warning: symmetry operation # 10 not allowed.   fractional translation:
       0.2500000  0.2500000  0.2500000  in crystal coordinates
     warning: symmetry operation # 11 not allowed.   fractional translation:
       0.2500000  0.2500000  0.2500000  in crystal coordinates
     warning: symmetry operation # 12 not allowed.   fractional translation:
       0.2500000  0.2500000  0.2500000  in crystal coordinates
     warning: symmetry operation # 13 not allowed.   fractional translation:
       0.2500000  0.2500000  0.2500000  in crystal coordinates
     warning: symmetry operation # 14 not allowed.   fractional translation:
       0.2500000  0.2500000  0.2500000  in crystal coordinates
     warning: symmetry operation # 15 not allowed.   fractional translation:
       0.2500000  0.2500000  0.2500000  in crystal coordinates
     warning: symmetry operation # 16 not allowed.   fractional translation:
       0.2500000  0.2500000  0.2500000  in crystal coordinates
     warning: symmetry operation # 25 not allowed.   fractional translation:
       0.2500000  0.2500000  0.2500000  in crystal coordinates
     warning: symmetry operation # 26 not allowed.   fractional translation:
       0.2500000  0.2500000  0.2500000  in crystal coordinates
     warning: symmetry operation # 27 not allowed.   fractional translation:
       0.2500000  0.2500000  0.2500000  in crystal coordinates
     warning: symmetry operation # 28 not allowed.   fractional translation:
       0.2500000  0.2500000  0.2500000  in crystal coordinates
     warning: symmetry operation # 41 not allowed.   fractional translation:
       0.2500000  0.2500000  0.2500000  in crystal coordinates
     warning: symmetry operation # 42 not allowed.   fractional translation:
       0.2500000  0.2500000  0.2500000  in crystal coordinates
     warning: symmetry operation # 43 not allowed.   fractional translation:
       0.2500000  0.2500000  0.2500000  in crystal coordinates
     warning: symmetry operation # 44 not allowed.   fractional translation:
       0.2500000  0.2500000  0.2500000  in crystal coordinates
     warning: symmetry operation # 45 not allowed.   fractional translation:
       0.2500000  0.2500000  0.2500000  in crystal coordinates
     warning: symmetry operation # 46 not allowed.   fractional translation:
       0.2500000  0.2500000  0.2500000  in crystal coordinates
     warning: symmetry operation # 47 not allowed.   fractional translation:
       0.2500000  0.2500000  0.2500000  in crystal coordinates
     warning: symmetry operation # 48 not allowed.   fractional translation:
       0.2500000  0.2500000  0.2500000  in crystal coordinates

     G-vector sticks info
     --------------------
     sticks:   dense  smooth     PW     G-vecs:    dense   smooth      PW
     Sum         433     433    127                 5985     5985     965



     bravais-lattice index     =            2
     lattice parameter (alat)  =       6.7400  a.u.
     unit-cell volume          =      76.5455 (a.u.)^3
     number of atoms/cell      =            2
     number of atomic types    =            1
     number of electrons       =         8.00
     number of Kohn-Sham states=            4
     kinetic-energy cutoff     =      70.0000  Ry
     charge density cutoff     =     280.0000  Ry
     convergence threshold     =      1.0E-06
     mixing beta               =       0.7000
     number of iterations used =            8  plain     mixing
     Exchange-correlation      =  SLA  PZ   NOGX NOGC ( 1 1 0 0 0)
     EXX-fraction              =        0.00

     celldm(1)=   6.740000  celldm(2)=   0.000000  celldm(3)=   0.000000
     celldm(4)=   0.000000  celldm(5)=   0.000000  celldm(6)=   0.000000

     crystal axes: (cart. coord. in units of alat)
               a(1) = (  -0.500000   0.000000   0.500000 )  
               a(2) = (   0.000000   0.500000   0.500000 )  
               a(3) = (  -0.500000   0.500000   0.000000 )  

     reciprocal axes: (cart. coord. in units 2 pi/alat)
               b(1) = ( -1.000000 -1.000000  1.000000 )  
               b(2) = (  1.000000  1.000000  1.000000 )  
               b(3) = ( -1.000000  1.000000 -1.000000 )  


     PseudoPot. # 1 for  C read from file:
     /home/sam/Documents/espresso-4.3.2/pseudo/C.pz-kjpaw.UPF
     MD5 check sum: 414e6e825ae75add557e798061b49a04
     Pseudo is Projector augmented-wave + core cor, Zval =  4.0
     Generated using "atomic" code by A. Dal Corso (espresso distribution)
     Shape of augmentation charge: BESSEL
     Using radial grid of 1073 points,  4 beta functions with: 
                l(1) =   0
                l(2) =   0
                l(3) =   1
                l(4) =   1
     Q(r) pseudized with 0 coefficients 


     atomic species   valence    mass     pseudopotential
        C              4.00    12.01070      C( 1.00)

     24 Sym.Ops. (no inversion)


   Cartesian axes

     site n.     atom                  positions (alat units)
         1           C   tau(   1) = (   0.0000000   0.0000000   0.0000000  )
         2           C   tau(   2) = (   0.2500000   0.2500000   0.2500000  )

     number of k points=     2
                       cart. coord. in units 2pi/alat
        k(    1) = (   0.2500000   0.2500000   0.7500000), wk =   1.5000000
        k(    2) = (   0.2500000   0.2500000   0.2500000), wk =   0.5000000

     Dense  grid:     5985 G-vectors     FFT dimensions: (  25,  25,  25)

     Largest allocated arrays     est. size (Mb)     dimensions
        Kohn-Sham Wavefunctions         0.05 Mb     (    758,    4)
        NL pseudopotentials             0.19 Mb     (    758,   16)
        Each V/rho on FFT grid          0.24 Mb     (  15625)
        Each G-vector array             0.05 Mb     (   5985)
        G-vector shells                 0.00 Mb     (    109)
     Largest temporary arrays     est. size (Mb)     dimensions
        Auxiliary wavefunctions         0.19 Mb     (    758,   16)
        Each subspace H/S matrix        0.00 Mb     (  16,  16)
        Each <psi_i|beta_j> matrix      0.00 Mb     (     16,    4)
        Arrays for rho mixing           1.91 Mb     (  15625,   8)

     Check: negative/imaginary core charge=   -0.000008    0.000000

     Initial potential from superposition of free atoms

     starting charge    7.99993, renormalised to    8.00000
     Starting wfc are    8 atomic wfcs

     total cpu time spent up to now is        0.8 secs

     per-process dynamical memory:     5.1 Mb

     Self-consistent Calculation

     iteration #  1     ecut=    70.00 Ry     beta=0.70
     Davidson diagonalization with overlap
     ethr =  1.00E-02,  avg # of iterations =  2.5

     Threshold (ethr) on eigenvalues was too large:
     Diagonalizing with lowered threshold

     Davidson diagonalization with overlap
     ethr =  7.92E-04,  avg # of iterations =  2.0

     total cpu time spent up to now is        0.9 secs

     total energy              =     -35.60937766 Ry
     Harris-Foulkes estimate   =     -35.67946784 Ry
     estimated scf accuracy    <       0.12936778 Ry

     iteration #  2     ecut=    70.00 Ry     beta=0.70
     Davidson diagonalization with overlap
     ethr =  1.62E-03,  avg # of iterations =  1.0

     total cpu time spent up to now is        1.0 secs

     total energy              =     -35.61243992 Ry
     Harris-Foulkes estimate   =     -35.61537420 Ry
     estimated scf accuracy    <       0.00606757 Ry

     iteration #  3     ecut=    70.00 Ry     beta=0.70
     Davidson diagonalization with overlap
     ethr =  7.58E-05,  avg # of iterations =  3.0

     total cpu time spent up to now is        1.1 secs

     total energy              =     -35.62114728 Ry
     Harris-Foulkes estimate   =     -35.62283639 Ry
     estimated scf accuracy    <       0.00282661 Ry

     iteration #  4     ecut=    70.00 Ry     beta=0.70
     Davidson diagonalization with overlap
     ethr =  3.53E-05,  avg # of iterations =  3.0

     total cpu time spent up to now is        1.2 secs

     total energy              =     -35.62144003 Ry
     Harris-Foulkes estimate   =     -35.62196892 Ry
     estimated scf accuracy    <       0.00088353 Ry

     iteration #  5     ecut=    70.00 Ry     beta=0.70
     Davidson diagonalization with overlap
     ethr =  1.10E-05,  avg # of iterations =  2.0

     total cpu time spent up to now is        1.3 secs

     total energy              =     -35.62152345 Ry
     Harris-Foulkes estimate   =     -35.62152570 Ry
     estimated scf accuracy    <       0.00000513 Ry

     iteration #  6     ecut=    70.00 Ry     beta=0.70
     Davidson diagonalization with overlap
     ethr =  6.41E-08,  avg # of iterations =  4.0

     total cpu time spent up to now is        1.5 secs

     total energy              =     -35.62158838 Ry
     Harris-Foulkes estimate   =     -35.62158602 Ry
     estimated scf accuracy    <       0.00000954 Ry

     iteration #  7     ecut=    70.00 Ry     beta=0.70
     Davidson diagonalization with overlap
     ethr =  6.41E-08,  avg # of iterations =  3.0

     total cpu time spent up to now is        1.6 secs

     total energy              =     -35.62158728 Ry
     Harris-Foulkes estimate   =     -35.62159453 Ry
     estimated scf accuracy    <       0.00001855 Ry

     iteration #  8     ecut=    70.00 Ry     beta=0.70
     Davidson diagonalization with overlap
     ethr =  6.41E-08,  avg # of iterations =  1.0

     total cpu time spent up to now is        1.8 secs

     total energy              =     -35.62158068 Ry
     Harris-Foulkes estimate   =     -35.62158745 Ry
     estimated scf accuracy    <       0.00000738 Ry

     iteration #  9     ecut=    70.00 Ry     beta=0.70
     Davidson diagonalization with overlap
     ethr =  6.41E-08,  avg # of iterations =  2.0

     total cpu time spent up to now is        1.8 secs

     End of self-consistent calculation

          k = 0.2500 0.2500 0.7500 (   758 PWs)   bands (ev):

    -2.1632   2.4231   6.4199   8.2491

          k = 0.2500 0.2500 0.2500 (   757 PWs)   bands (ev):

    -6.4841   6.5849  11.3819  11.3819

!    total energy              =     -35.62158173 Ry
     Harris-Foulkes estimate   =     -35.62158184 Ry
     estimated scf accuracy    <       0.00000018 Ry

     total all-electron energy =      -151.180578 Ry

     The total energy is the sum of the following terms:

     one-electron contribution =       8.47661888 Ry
     hartree contribution      =       1.92830513 Ry
     xc contribution           =      -8.38248885 Ry
     ewald contribution        =     -25.57530229 Ry
     one-center paw contrib.   =     -12.06871461 Ry

     convergence has been achieved in   9 iterations

     Writing output data file diamond.save

     init_run     :      0.50s CPU      0.50s WALL (       1 calls)
     electrons    :      1.08s CPU      1.10s WALL (       1 calls)

     Called by init_run:
     wfcinit      :      0.01s CPU      0.02s WALL (       1 calls)
     potinit      :      0.04s CPU      0.04s WALL (       1 calls)

     Called by electrons:
     c_bands      :      0.25s CPU      0.24s WALL (      10 calls)
     sum_band     :      0.15s CPU      0.16s WALL (      10 calls)
     v_of_rho     :      0.04s CPU      0.04s WALL (      10 calls)
     newd         :      0.10s CPU      0.11s WALL (      10 calls)
     mix_rho      :      0.26s CPU      0.26s WALL (      10 calls)

     Called by c_bands:
     init_us_2    :      0.02s CPU      0.01s WALL (      42 calls)
     cegterg      :      0.22s CPU      0.22s WALL (      20 calls)

     Called by *egterg:
     h_psi        :      0.19s CPU      0.20s WALL (      69 calls)
     s_psi        :      0.01s CPU      0.01s WALL (      69 calls)
     g_psi        :      0.00s CPU      0.00s WALL (      47 calls)
     cdiaghg      :      0.00s CPU      0.00s WALL (      65 calls)

     Called by h_psi:
     add_vuspsi   :      0.01s CPU      0.01s WALL (      69 calls)

     General routines
     calbec       :      0.00s CPU      0.01s WALL (      89 calls)
     fft          :      0.04s CPU      0.03s WALL (      62 calls)
     fftw         :      0.18s CPU      0.20s WALL (     612 calls)
     davcio       :      0.00s CPU      0.00s WALL (      62 calls)


     PAW routines
     PAW_pot      :      0.30s CPU      0.31s WALL (      10 calls)
     PAW_ddot     :      0.24s CPU      0.25s WALL (     122 calls)
     PAW_symme    :      0.00s CPU      0.00s WALL (      20 calls)

     PWSCF        :     1.89s CPU         1.92s WALL


   This run was terminated on:  13:23:59  26Mar2012            

=------------------------------------------------------------------------------=
   JOB DONE.
=------------------------------------------------------------------------------=
