
     Program PWSCF v.4.3.2      starts on 26Mar2012 at 13:24:15 

     This program is part of the open-source Quantum ESPRESSO suite
     for quantum simulation of materials; please cite
         "P. Giannozzi et al., J. Phys.:Condens. Matter 21 395502 (2009);
          URL http://www.quantum-espresso.org", 
     in publications or presentations arising from this work. More details at
     http://www.quantum-espresso.org/wiki/index.php/Citing_Quantum-ESPRESSO

     Current dimensions of program PWSCF are:
     Max number of different atomic species (ntypx) = 10
     Max number of k-points (npk) =  40000
     Max angular momentum in pseudopotentials (lmaxx) =  3
     Waiting for input...
     Reading input from stdin

     G-vector sticks info
     --------------------
     sticks:   dense  smooth     PW     G-vecs:    dense   smooth      PW
     Sum         871     871    253                17153    17153    2637



     bravais-lattice index     =            2
     lattice parameter (alat)  =       6.7400  a.u.
     unit-cell volume          =      76.5455 (a.u.)^3
     number of atoms/cell      =            2
     number of atomic types    =            1
     number of electrons       =         8.00
     number of Kohn-Sham states=            4
     kinetic-energy cutoff     =     140.0000  Ry
     charge density cutoff     =     560.0000  Ry
     convergence threshold     =      1.0E-06
     mixing beta               =       0.7000
     number of iterations used =            8  plain     mixing
     Exchange-correlation      =  SLA  PZ   NOGX NOGC ( 1 1 0 0 0)
     EXX-fraction              =        0.00

     celldm(1)=   6.740000  celldm(2)=   0.000000  celldm(3)=   0.000000
     celldm(4)=   0.000000  celldm(5)=   0.000000  celldm(6)=   0.000000

     crystal axes: (cart. coord. in units of alat)
               a(1) = (  -0.500000   0.000000   0.500000 )  
               a(2) = (   0.000000   0.500000   0.500000 )  
               a(3) = (  -0.500000   0.500000   0.000000 )  

     reciprocal axes: (cart. coord. in units 2 pi/alat)
               b(1) = ( -1.000000 -1.000000  1.000000 )  
               b(2) = (  1.000000  1.000000  1.000000 )  
               b(3) = ( -1.000000  1.000000 -1.000000 )  


     PseudoPot. # 1 for  C read from file:
     /home/sam/Documents/espresso-4.3.2/pseudo/C.pz-kjpaw.UPF
     MD5 check sum: 414e6e825ae75add557e798061b49a04
     Pseudo is Projector augmented-wave + core cor, Zval =  4.0
     Generated using "atomic" code by A. Dal Corso (espresso distribution)
     Shape of augmentation charge: BESSEL
     Using radial grid of 1073 points,  4 beta functions with: 
                l(1) =   0
                l(2) =   0
                l(3) =   1
                l(4) =   1
     Q(r) pseudized with 0 coefficients 


     atomic species   valence    mass     pseudopotential
        C              4.00    12.01070      C( 1.00)

     48 Sym.Ops. (with inversion)


   Cartesian axes

     site n.     atom                  positions (alat units)
         1           C   tau(   1) = (   0.0000000   0.0000000   0.0000000  )
         2           C   tau(   2) = (   0.2500000   0.2500000   0.2500000  )

     number of k points=     2
                       cart. coord. in units 2pi/alat
        k(    1) = (   0.2500000   0.2500000   0.7500000), wk =   1.5000000
        k(    2) = (   0.2500000   0.2500000   0.2500000), wk =   0.5000000

     Dense  grid:    17153 G-vectors     FFT dimensions: (  36,  36,  36)

     Largest allocated arrays     est. size (Mb)     dimensions
        Kohn-Sham Wavefunctions         0.13 Mb     (   2136,    4)
        NL pseudopotentials             0.52 Mb     (   2136,   16)
        Each V/rho on FFT grid          0.71 Mb     (  46656)
        Each G-vector array             0.13 Mb     (  17153)
        G-vector shells                 0.00 Mb     (    217)
     Largest temporary arrays     est. size (Mb)     dimensions
        Auxiliary wavefunctions         0.52 Mb     (   2136,   16)
        Each subspace H/S matrix        0.00 Mb     (  16,  16)
        Each <psi_i|beta_j> matrix      0.00 Mb     (     16,    4)
        Arrays for rho mixing           5.70 Mb     (  46656,   8)

     Initial potential from superposition of free atoms

     starting charge    7.99993, renormalised to    8.00000
     Starting wfc are    8 atomic wfcs

     total cpu time spent up to now is        1.0 secs

     per-process dynamical memory:    10.9 Mb

     Self-consistent Calculation

     iteration #  1     ecut=   140.00 Ry     beta=0.70
     Davidson diagonalization with overlap
     ethr =  1.00E-02,  avg # of iterations =  2.5

     Threshold (ethr) on eigenvalues was too large:
     Diagonalizing with lowered threshold

     Davidson diagonalization with overlap
     ethr =  7.74E-04,  avg # of iterations =  3.0

     total cpu time spent up to now is        1.3 secs

     total energy              =     -35.60945990 Ry
     Harris-Foulkes estimate   =     -35.67962340 Ry
     estimated scf accuracy    <       0.12956291 Ry

     iteration #  2     ecut=   140.00 Ry     beta=0.70
     Davidson diagonalization with overlap
     ethr =  1.62E-03,  avg # of iterations =  1.0

     total cpu time spent up to now is        1.5 secs

     total energy              =     -35.61239702 Ry
     Harris-Foulkes estimate   =     -35.61536298 Ry
     estimated scf accuracy    <       0.00611702 Ry

     iteration #  3     ecut=   140.00 Ry     beta=0.70
     Davidson diagonalization with overlap
     ethr =  7.65E-05,  avg # of iterations =  3.0

     total cpu time spent up to now is        2.0 secs

     total energy              =     -35.62125613 Ry
     Harris-Foulkes estimate   =     -35.62298364 Ry
     estimated scf accuracy    <       0.00289858 Ry

     iteration #  4     ecut=   140.00 Ry     beta=0.70
     Davidson diagonalization with overlap
     ethr =  3.62E-05,  avg # of iterations =  3.0

     total cpu time spent up to now is        2.2 secs

     total energy              =     -35.62156082 Ry
     Harris-Foulkes estimate   =     -35.62209016 Ry
     estimated scf accuracy    <       0.00088500 Ry

     iteration #  5     ecut=   140.00 Ry     beta=0.70
     Davidson diagonalization with overlap
     ethr =  1.11E-05,  avg # of iterations =  2.0

     total cpu time spent up to now is        2.4 secs

     total energy              =     -35.62164439 Ry
     Harris-Foulkes estimate   =     -35.62164782 Ry
     estimated scf accuracy    <       0.00000471 Ry

     iteration #  6     ecut=   140.00 Ry     beta=0.70
     Davidson diagonalization with overlap
     ethr =  5.88E-08,  avg # of iterations =  4.0

     total cpu time spent up to now is        2.7 secs

     total energy              =     -35.62171017 Ry
     Harris-Foulkes estimate   =     -35.62170906 Ry
     estimated scf accuracy    <       0.00001134 Ry

     iteration #  7     ecut=   140.00 Ry     beta=0.70
     Davidson diagonalization with overlap
     ethr =  5.88E-08,  avg # of iterations =  3.0

     total cpu time spent up to now is        3.0 secs

     total energy              =     -35.62171141 Ry
     Harris-Foulkes estimate   =     -35.62171555 Ry
     estimated scf accuracy    <       0.00001251 Ry

     iteration #  8     ecut=   140.00 Ry     beta=0.70
     Davidson diagonalization with overlap
     ethr =  5.88E-08,  avg # of iterations =  1.0

     total cpu time spent up to now is        3.3 secs

     total energy              =     -35.62170784 Ry
     Harris-Foulkes estimate   =     -35.62171153 Ry
     estimated scf accuracy    <       0.00000491 Ry

     iteration #  9     ecut=   140.00 Ry     beta=0.70
     Davidson diagonalization with overlap
     ethr =  5.88E-08,  avg # of iterations =  2.0

     total cpu time spent up to now is        3.5 secs

     End of self-consistent calculation

          k = 0.2500 0.2500 0.7500 (  2136 PWs)   bands (ev):

    -2.1629   2.4234   6.4204   8.2497

          k = 0.2500 0.2500 0.2500 (  2127 PWs)   bands (ev):

    -6.4840   6.5853  11.3825  11.3825

!    total energy              =     -35.62170630 Ry
     Harris-Foulkes estimate   =     -35.62170861 Ry
     estimated scf accuracy    <       0.00000009 Ry

     total all-electron energy =      -151.180703 Ry

     The total energy is the sum of the following terms:

     one-electron contribution =       8.47637528 Ry
     hartree contribution      =       1.92839091 Ry
     xc contribution           =      -8.38252325 Ry
     ewald contribution        =     -25.57530229 Ry
     one-center paw contrib.   =     -12.06864695 Ry

     convergence has been achieved in   9 iterations

     Writing output data file diamond.save

     init_run     :      0.76s CPU      0.78s WALL (       1 calls)
     electrons    :      2.16s CPU      2.43s WALL (       1 calls)

     Called by init_run:
     wfcinit      :      0.03s CPU      0.04s WALL (       1 calls)
     potinit      :      0.05s CPU      0.06s WALL (       1 calls)

     Called by electrons:
     c_bands      :      0.64s CPU      0.64s WALL (      10 calls)
     sum_band     :      0.48s CPU      0.51s WALL (      10 calls)
     v_of_rho     :      0.12s CPU      0.12s WALL (      10 calls)
     newd         :      0.32s CPU      0.33s WALL (      10 calls)
     mix_rho      :      0.30s CPU      0.31s WALL (      10 calls)

     Called by c_bands:
     init_us_2    :      0.04s CPU      0.03s WALL (      42 calls)
     cegterg      :      0.61s CPU      0.59s WALL (      20 calls)

     Called by *egterg:
     h_psi        :      0.53s CPU      0.52s WALL (      71 calls)
     s_psi        :      0.03s CPU      0.02s WALL (      71 calls)
     g_psi        :      0.00s CPU      0.01s WALL (      49 calls)
     cdiaghg      :      0.02s CPU      0.01s WALL (      67 calls)

     Called by h_psi:
     add_vuspsi   :      0.01s CPU      0.02s WALL (      71 calls)

     General routines
     calbec       :      0.05s CPU      0.03s WALL (      91 calls)
     fft          :      0.05s CPU      0.08s WALL (      62 calls)
     fftw         :      0.46s CPU      0.48s WALL (     612 calls)
     davcio       :      0.00s CPU      0.01s WALL (      62 calls)


     PAW routines
     PAW_pot      :      0.31s CPU      0.31s WALL (      10 calls)
     PAW_ddot     :      0.26s CPU      0.26s WALL (     122 calls)
     PAW_symme    :      0.00s CPU      0.00s WALL (      20 calls)

     PWSCF        :     3.24s CPU         3.55s WALL


   This run was terminated on:  13:24:19  26Mar2012            

=------------------------------------------------------------------------------=
   JOB DONE.
=------------------------------------------------------------------------------=
