
     Program PWSCF v.4.3.2      starts on 26Mar2012 at 13:23:52 

     This program is part of the open-source Quantum ESPRESSO suite
     for quantum simulation of materials; please cite
         "P. Giannozzi et al., J. Phys.:Condens. Matter 21 395502 (2009);
          URL http://www.quantum-espresso.org", 
     in publications or presentations arising from this work. More details at
     http://www.quantum-espresso.org/wiki/index.php/Citing_Quantum-ESPRESSO

     Current dimensions of program PWSCF are:
     Max number of different atomic species (ntypx) = 10
     Max number of k-points (npk) =  40000
     Max angular momentum in pseudopotentials (lmaxx) =  3
     Waiting for input...
     Reading input from stdin
     warning: symmetry operation #  5 not allowed.   fractional translation:
       0.2500000  0.2500000  0.2500000  in crystal coordinates
     warning: symmetry operation #  6 not allowed.   fractional translation:
       0.2500000  0.2500000  0.2500000  in crystal coordinates
     warning: symmetry operation #  7 not allowed.   fractional translation:
       0.2500000  0.2500000  0.2500000  in crystal coordinates
     warning: symmetry operation #  8 not allowed.   fractional translation:
       0.2500000  0.2500000  0.2500000  in crystal coordinates
     warning: symmetry operation #  9 not allowed.   fractional translation:
       0.2500000  0.2500000  0.2500000  in crystal coordinates
     warning: symmetry operation # 10 not allowed.   fractional translation:
       0.2500000  0.2500000  0.2500000  in crystal coordinates
     warning: symmetry operation # 11 not allowed.   fractional translation:
       0.2500000  0.2500000  0.2500000  in crystal coordinates
     warning: symmetry operation # 12 not allowed.   fractional translation:
       0.2500000  0.2500000  0.2500000  in crystal coordinates
     warning: symmetry operation # 13 not allowed.   fractional translation:
       0.2500000  0.2500000  0.2500000  in crystal coordinates
     warning: symmetry operation # 14 not allowed.   fractional translation:
       0.2500000  0.2500000  0.2500000  in crystal coordinates
     warning: symmetry operation # 15 not allowed.   fractional translation:
       0.2500000  0.2500000  0.2500000  in crystal coordinates
     warning: symmetry operation # 16 not allowed.   fractional translation:
       0.2500000  0.2500000  0.2500000  in crystal coordinates
     warning: symmetry operation # 25 not allowed.   fractional translation:
       0.2500000  0.2500000  0.2500000  in crystal coordinates
     warning: symmetry operation # 26 not allowed.   fractional translation:
       0.2500000  0.2500000  0.2500000  in crystal coordinates
     warning: symmetry operation # 27 not allowed.   fractional translation:
       0.2500000  0.2500000  0.2500000  in crystal coordinates
     warning: symmetry operation # 28 not allowed.   fractional translation:
       0.2500000  0.2500000  0.2500000  in crystal coordinates
     warning: symmetry operation # 41 not allowed.   fractional translation:
       0.2500000  0.2500000  0.2500000  in crystal coordinates
     warning: symmetry operation # 42 not allowed.   fractional translation:
       0.2500000  0.2500000  0.2500000  in crystal coordinates
     warning: symmetry operation # 43 not allowed.   fractional translation:
       0.2500000  0.2500000  0.2500000  in crystal coordinates
     warning: symmetry operation # 44 not allowed.   fractional translation:
       0.2500000  0.2500000  0.2500000  in crystal coordinates
     warning: symmetry operation # 45 not allowed.   fractional translation:
       0.2500000  0.2500000  0.2500000  in crystal coordinates
     warning: symmetry operation # 46 not allowed.   fractional translation:
       0.2500000  0.2500000  0.2500000  in crystal coordinates
     warning: symmetry operation # 47 not allowed.   fractional translation:
       0.2500000  0.2500000  0.2500000  in crystal coordinates
     warning: symmetry operation # 48 not allowed.   fractional translation:
       0.2500000  0.2500000  0.2500000  in crystal coordinates

     G-vector sticks info
     --------------------
     sticks:   dense  smooth     PW     G-vecs:    dense   smooth      PW
     Sum         187     187     61                 1687     1687     331



     bravais-lattice index     =            2
     lattice parameter (alat)  =       6.7400  a.u.
     unit-cell volume          =      76.5455 (a.u.)^3
     number of atoms/cell      =            2
     number of atomic types    =            1
     number of electrons       =         8.00
     number of Kohn-Sham states=            4
     kinetic-energy cutoff     =      30.0000  Ry
     charge density cutoff     =     120.0000  Ry
     convergence threshold     =      1.0E-06
     mixing beta               =       0.7000
     number of iterations used =            8  plain     mixing
     Exchange-correlation      =  SLA  PZ   NOGX NOGC ( 1 1 0 0 0)
     EXX-fraction              =        0.00

     celldm(1)=   6.740000  celldm(2)=   0.000000  celldm(3)=   0.000000
     celldm(4)=   0.000000  celldm(5)=   0.000000  celldm(6)=   0.000000

     crystal axes: (cart. coord. in units of alat)
               a(1) = (  -0.500000   0.000000   0.500000 )  
               a(2) = (   0.000000   0.500000   0.500000 )  
               a(3) = (  -0.500000   0.500000   0.000000 )  

     reciprocal axes: (cart. coord. in units 2 pi/alat)
               b(1) = ( -1.000000 -1.000000  1.000000 )  
               b(2) = (  1.000000  1.000000  1.000000 )  
               b(3) = ( -1.000000  1.000000 -1.000000 )  


     PseudoPot. # 1 for  C read from file:
     /home/sam/Documents/espresso-4.3.2/pseudo/C.pz-kjpaw.UPF
     MD5 check sum: 414e6e825ae75add557e798061b49a04
     Pseudo is Projector augmented-wave + core cor, Zval =  4.0
     Generated using "atomic" code by A. Dal Corso (espresso distribution)
     Shape of augmentation charge: BESSEL
     Using radial grid of 1073 points,  4 beta functions with: 
                l(1) =   0
                l(2) =   0
                l(3) =   1
                l(4) =   1
     Q(r) pseudized with 0 coefficients 


     atomic species   valence    mass     pseudopotential
        C              4.00    12.01070      C( 1.00)

     24 Sym.Ops. (no inversion)


   Cartesian axes

     site n.     atom                  positions (alat units)
         1           C   tau(   1) = (   0.0000000   0.0000000   0.0000000  )
         2           C   tau(   2) = (   0.2500000   0.2500000   0.2500000  )

     number of k points=     2
                       cart. coord. in units 2pi/alat
        k(    1) = (   0.2500000   0.2500000   0.7500000), wk =   1.5000000
        k(    2) = (   0.2500000   0.2500000   0.2500000), wk =   0.5000000

     Dense  grid:     1687 G-vectors     FFT dimensions: (  18,  18,  18)

     Largest allocated arrays     est. size (Mb)     dimensions
        Kohn-Sham Wavefunctions         0.01 Mb     (    214,    4)
        NL pseudopotentials             0.05 Mb     (    214,   16)
        Each V/rho on FFT grid          0.09 Mb     (   5832)
        Each G-vector array             0.01 Mb     (   1687)
        G-vector shells                 0.00 Mb     (     47)
     Largest temporary arrays     est. size (Mb)     dimensions
        Auxiliary wavefunctions         0.05 Mb     (    214,   16)
        Each subspace H/S matrix        0.00 Mb     (  16,  16)
        Each <psi_i|beta_j> matrix      0.00 Mb     (     16,    4)
        Arrays for rho mixing           0.71 Mb     (   5832,   8)

     Check: negative/imaginary core charge=   -0.000055    0.000000

     Initial potential from superposition of free atoms

     starting charge    7.99993, renormalised to    8.00000
     Starting wfc are    8 atomic wfcs

     total cpu time spent up to now is        0.6 secs

     per-process dynamical memory:     3.3 Mb

     Self-consistent Calculation

     iteration #  1     ecut=    30.00 Ry     beta=0.70
     Davidson diagonalization with overlap
     ethr =  1.00E-02,  avg # of iterations =  2.0

     total cpu time spent up to now is        0.6 secs

     total energy              =     -35.59535240 Ry
     Harris-Foulkes estimate   =     -35.66446778 Ry
     estimated scf accuracy    <       0.12805056 Ry

     iteration #  2     ecut=    30.00 Ry     beta=0.70
     Davidson diagonalization with overlap
     ethr =  1.60E-03,  avg # of iterations =  2.0

     total cpu time spent up to now is        0.7 secs

     total energy              =     -35.60668246 Ry
     Harris-Foulkes estimate   =     -35.60770883 Ry
     estimated scf accuracy    <       0.00266654 Ry

     iteration #  3     ecut=    30.00 Ry     beta=0.70
     Davidson diagonalization with overlap
     ethr =  3.33E-05,  avg # of iterations =  3.0

     total cpu time spent up to now is        0.7 secs

     total energy              =     -35.60858141 Ry
     Harris-Foulkes estimate   =     -35.60864613 Ry
     estimated scf accuracy    <       0.00014876 Ry

     iteration #  4     ecut=    30.00 Ry     beta=0.70
     Davidson diagonalization with overlap
     ethr =  1.86E-06,  avg # of iterations =  3.5

     total cpu time spent up to now is        0.8 secs

     total energy              =     -35.60863391 Ry
     Harris-Foulkes estimate   =     -35.60864337 Ry
     estimated scf accuracy    <       0.00001682 Ry

     iteration #  5     ecut=    30.00 Ry     beta=0.70
     Davidson diagonalization with overlap
     ethr =  2.10E-07,  avg # of iterations =  3.0

     total cpu time spent up to now is        0.9 secs

     End of self-consistent calculation

          k = 0.2500 0.2500 0.7500 (   214 PWs)   bands (ev):

    -2.1616   2.4348   6.4369   8.2764

          k = 0.2500 0.2500 0.2500 (   205 PWs)   bands (ev):

    -6.4839   6.6008  11.4392  11.4392

!    total energy              =     -35.60863884 Ry
     Harris-Foulkes estimate   =     -35.60863927 Ry
     estimated scf accuracy    <       0.00000077 Ry

     total all-electron energy =      -151.167635 Ry

     The total energy is the sum of the following terms:

     one-electron contribution =       8.48327736 Ry
     hartree contribution      =       1.92486068 Ry
     xc contribution           =      -8.37841110 Ry
     ewald contribution        =     -25.57530233 Ry
     one-center paw contrib.   =     -12.06306345 Ry

     convergence has been achieved in   5 iterations

     Writing output data file diamond.save

     init_run     :      0.32s CPU      0.32s WALL (       1 calls)
     electrons    :      0.29s CPU      0.29s WALL (       1 calls)

     Called by init_run:
     wfcinit      :      0.00s CPU      0.00s WALL (       1 calls)
     potinit      :      0.03s CPU      0.03s WALL (       1 calls)

     Called by electrons:
     c_bands      :      0.04s CPU      0.04s WALL (       5 calls)
     sum_band     :      0.02s CPU      0.02s WALL (       5 calls)
     v_of_rho     :      0.01s CPU      0.01s WALL (       6 calls)
     newd         :      0.02s CPU      0.02s WALL (       6 calls)
     mix_rho      :      0.05s CPU      0.04s WALL (       5 calls)

     Called by c_bands:
     init_us_2    :      0.00s CPU      0.00s WALL (      22 calls)
     cegterg      :      0.04s CPU      0.04s WALL (      10 calls)

     Called by *egterg:
     h_psi        :      0.04s CPU      0.04s WALL (      39 calls)
     s_psi        :      0.00s CPU      0.00s WALL (      39 calls)
     g_psi        :      0.00s CPU      0.00s WALL (      27 calls)
     cdiaghg      :      0.00s CPU      0.00s WALL (      37 calls)

     Called by h_psi:
     add_vuspsi   :      0.00s CPU      0.00s WALL (      39 calls)

     General routines
     calbec       :      0.00s CPU      0.00s WALL (      49 calls)
     fft          :      0.00s CPU      0.01s WALL (      35 calls)
     fftw         :      0.04s CPU      0.04s WALL (     334 calls)
     davcio       :      0.00s CPU      0.00s WALL (      32 calls)


     PAW routines
     PAW_pot      :      0.18s CPU      0.18s WALL (       6 calls)
     PAW_ddot     :      0.05s CPU      0.04s WALL (      21 calls)
     PAW_symme    :      0.00s CPU      0.00s WALL (      11 calls)

     PWSCF        :     0.93s CPU         0.94s WALL


   This run was terminated on:  13:23:53  26Mar2012            

=------------------------------------------------------------------------------=
   JOB DONE.
=------------------------------------------------------------------------------=
