
     Program PWSCF v.4.3.2      starts on 26Mar2012 at 13:24: 6 

     This program is part of the open-source Quantum ESPRESSO suite
     for quantum simulation of materials; please cite
         "P. Giannozzi et al., J. Phys.:Condens. Matter 21 395502 (2009);
          URL http://www.quantum-espresso.org", 
     in publications or presentations arising from this work. More details at
     http://www.quantum-espresso.org/wiki/index.php/Citing_Quantum-ESPRESSO

     Current dimensions of program PWSCF are:
     Max number of different atomic species (ntypx) = 10
     Max number of k-points (npk) =  40000
     Max angular momentum in pseudopotentials (lmaxx) =  3
     Waiting for input...
     Reading input from stdin

     G-vector sticks info
     --------------------
     sticks:   dense  smooth     PW     G-vecs:    dense   smooth      PW
     Sum         685     685    199                11935    11935    1837



     bravais-lattice index     =            2
     lattice parameter (alat)  =       6.7400  a.u.
     unit-cell volume          =      76.5455 (a.u.)^3
     number of atoms/cell      =            2
     number of atomic types    =            1
     number of electrons       =         8.00
     number of Kohn-Sham states=            4
     kinetic-energy cutoff     =     110.0000  Ry
     charge density cutoff     =     440.0000  Ry
     convergence threshold     =      1.0E-06
     mixing beta               =       0.7000
     number of iterations used =            8  plain     mixing
     Exchange-correlation      =  SLA  PZ   NOGX NOGC ( 1 1 0 0 0)
     EXX-fraction              =        0.00

     celldm(1)=   6.740000  celldm(2)=   0.000000  celldm(3)=   0.000000
     celldm(4)=   0.000000  celldm(5)=   0.000000  celldm(6)=   0.000000

     crystal axes: (cart. coord. in units of alat)
               a(1) = (  -0.500000   0.000000   0.500000 )  
               a(2) = (   0.000000   0.500000   0.500000 )  
               a(3) = (  -0.500000   0.500000   0.000000 )  

     reciprocal axes: (cart. coord. in units 2 pi/alat)
               b(1) = ( -1.000000 -1.000000  1.000000 )  
               b(2) = (  1.000000  1.000000  1.000000 )  
               b(3) = ( -1.000000  1.000000 -1.000000 )  


     PseudoPot. # 1 for  C read from file:
     /home/sam/Documents/espresso-4.3.2/pseudo/C.pz-kjpaw.UPF
     MD5 check sum: 414e6e825ae75add557e798061b49a04
     Pseudo is Projector augmented-wave + core cor, Zval =  4.0
     Generated using "atomic" code by A. Dal Corso (espresso distribution)
     Shape of augmentation charge: BESSEL
     Using radial grid of 1073 points,  4 beta functions with: 
                l(1) =   0
                l(2) =   0
                l(3) =   1
                l(4) =   1
     Q(r) pseudized with 0 coefficients 


     atomic species   valence    mass     pseudopotential
        C              4.00    12.01070      C( 1.00)

     48 Sym.Ops. (with inversion)


   Cartesian axes

     site n.     atom                  positions (alat units)
         1           C   tau(   1) = (   0.0000000   0.0000000   0.0000000  )
         2           C   tau(   2) = (   0.2500000   0.2500000   0.2500000  )

     number of k points=     2
                       cart. coord. in units 2pi/alat
        k(    1) = (   0.2500000   0.2500000   0.7500000), wk =   1.5000000
        k(    2) = (   0.2500000   0.2500000   0.2500000), wk =   0.5000000

     Dense  grid:    11935 G-vectors     FFT dimensions: (  32,  32,  32)

     Largest allocated arrays     est. size (Mb)     dimensions
        Kohn-Sham Wavefunctions         0.09 Mb     (   1491,    4)
        NL pseudopotentials             0.36 Mb     (   1491,   16)
        Each V/rho on FFT grid          0.50 Mb     (  32768)
        Each G-vector array             0.09 Mb     (  11935)
        G-vector shells                 0.00 Mb     (    170)
     Largest temporary arrays     est. size (Mb)     dimensions
        Auxiliary wavefunctions         0.36 Mb     (   1491,   16)
        Each subspace H/S matrix        0.00 Mb     (  16,  16)
        Each <psi_i|beta_j> matrix      0.00 Mb     (     16,    4)
        Arrays for rho mixing           4.00 Mb     (  32768,   8)

     Check: negative/imaginary core charge=   -0.000002    0.000000

     Initial potential from superposition of free atoms

     starting charge    7.99993, renormalised to    8.00000
     Starting wfc are    8 atomic wfcs

     total cpu time spent up to now is        0.9 secs

     per-process dynamical memory:     8.2 Mb

     Self-consistent Calculation

     iteration #  1     ecut=   110.00 Ry     beta=0.70
     Davidson diagonalization with overlap
     ethr =  1.00E-02,  avg # of iterations =  2.5

     Threshold (ethr) on eigenvalues was too large:
     Diagonalizing with lowered threshold

     Davidson diagonalization with overlap
     ethr =  7.83E-04,  avg # of iterations =  2.0

     total cpu time spent up to now is        1.2 secs

     total energy              =     -35.60948936 Ry
     Harris-Foulkes estimate   =     -35.67958638 Ry
     estimated scf accuracy    <       0.12936828 Ry

     iteration #  2     ecut=   110.00 Ry     beta=0.70
     Davidson diagonalization with overlap
     ethr =  1.62E-03,  avg # of iterations =  1.0

     total cpu time spent up to now is        1.4 secs

     total energy              =     -35.61242203 Ry
     Harris-Foulkes estimate   =     -35.61539995 Ry
     estimated scf accuracy    <       0.00613272 Ry

     iteration #  3     ecut=   110.00 Ry     beta=0.70
     Davidson diagonalization with overlap
     ethr =  7.67E-05,  avg # of iterations =  3.0

     total cpu time spent up to now is        1.7 secs

     total energy              =     -35.62124267 Ry
     Harris-Foulkes estimate   =     -35.62297513 Ry
     estimated scf accuracy    <       0.00290644 Ry

     iteration #  4     ecut=   110.00 Ry     beta=0.70
     Davidson diagonalization with overlap
     ethr =  3.63E-05,  avg # of iterations =  3.0

     total cpu time spent up to now is        1.9 secs

     total energy              =     -35.62153534 Ry
     Harris-Foulkes estimate   =     -35.62209081 Ry
     estimated scf accuracy    <       0.00091973 Ry

     iteration #  5     ecut=   110.00 Ry     beta=0.70
     Davidson diagonalization with overlap
     ethr =  1.15E-05,  avg # of iterations =  2.0

     total cpu time spent up to now is        2.1 secs

     total energy              =     -35.62162092 Ry
     Harris-Foulkes estimate   =     -35.62162336 Ry
     estimated scf accuracy    <       0.00000552 Ry

     iteration #  6     ecut=   110.00 Ry     beta=0.70
     Davidson diagonalization with overlap
     ethr =  6.89E-08,  avg # of iterations =  4.0

     total cpu time spent up to now is        2.4 secs

     total energy              =     -35.62168860 Ry
     Harris-Foulkes estimate   =     -35.62168707 Ry
     estimated scf accuracy    <       0.00001027 Ry

     iteration #  7     ecut=   110.00 Ry     beta=0.70
     Davidson diagonalization with overlap
     ethr =  6.89E-08,  avg # of iterations =  3.0

     total cpu time spent up to now is        2.6 secs

     total energy              =     -35.62168896 Ry
     Harris-Foulkes estimate   =     -35.62169489 Ry
     estimated scf accuracy    <       0.00001828 Ry

     iteration #  8     ecut=   110.00 Ry     beta=0.70
     Davidson diagonalization with overlap
     ethr =  6.89E-08,  avg # of iterations =  1.0

     total cpu time spent up to now is        2.8 secs

     total energy              =     -35.62168546 Ry
     Harris-Foulkes estimate   =     -35.62168913 Ry
     estimated scf accuracy    <       0.00000735 Ry

     iteration #  9     ecut=   110.00 Ry     beta=0.70
     Davidson diagonalization with overlap
     ethr =  6.89E-08,  avg # of iterations =  2.0

     total cpu time spent up to now is        3.0 secs

     End of self-consistent calculation

          k = 0.2500 0.2500 0.7500 (  1491 PWs)   bands (ev):

    -2.1632   2.4231   6.4200   8.2493

          k = 0.2500 0.2500 0.2500 (  1477 PWs)   bands (ev):

    -6.4842   6.5850  11.3821  11.3821

!    total energy              =     -35.62168262 Ry
     Harris-Foulkes estimate   =     -35.62168667 Ry
     estimated scf accuracy    <       0.00000012 Ry

     total all-electron energy =      -151.180679 Ry

     The total energy is the sum of the following terms:

     one-electron contribution =       8.47647279 Ry
     hartree contribution      =       1.92827316 Ry
     xc contribution           =      -8.38247644 Ry
     ewald contribution        =     -25.57530229 Ry
     one-center paw contrib.   =     -12.06864984 Ry

     convergence has been achieved in   9 iterations

     Writing output data file diamond.save

     init_run     :      0.66s CPU      0.67s WALL (       1 calls)
     electrons    :      1.56s CPU      1.97s WALL (       1 calls)

     Called by init_run:
     wfcinit      :      0.02s CPU      0.02s WALL (       1 calls)
     potinit      :      0.05s CPU      0.05s WALL (       1 calls)

     Called by electrons:
     c_bands      :      0.37s CPU      0.47s WALL (      10 calls)
     sum_band     :      0.32s CPU      0.35s WALL (      10 calls)
     v_of_rho     :      0.08s CPU      0.08s WALL (      10 calls)
     newd         :      0.23s CPU      0.23s WALL (      10 calls)
     mix_rho      :      0.28s CPU      0.28s WALL (      10 calls)

     Called by c_bands:
     init_us_2    :      0.03s CPU      0.02s WALL (      42 calls)
     cegterg      :      0.34s CPU      0.35s WALL (      20 calls)

     Called by *egterg:
     h_psi        :      0.30s CPU      0.30s WALL (      69 calls)
     s_psi        :      0.02s CPU      0.02s WALL (      69 calls)
     g_psi        :      0.01s CPU      0.01s WALL (      47 calls)
     cdiaghg      :      0.00s CPU      0.00s WALL (      65 calls)

     Called by h_psi:
     add_vuspsi   :      0.02s CPU      0.02s WALL (      69 calls)

     General routines
     calbec       :      0.02s CPU      0.02s WALL (      89 calls)
     fft          :      0.04s CPU      0.04s WALL (      62 calls)
     fftw         :      0.24s CPU      0.26s WALL (     612 calls)
     davcio       :      0.00s CPU      0.00s WALL (      62 calls)


     PAW routines
     PAW_pot      :      0.31s CPU      0.31s WALL (      10 calls)
     PAW_ddot     :      0.26s CPU      0.25s WALL (     122 calls)
     PAW_symme    :      0.00s CPU      0.00s WALL (      20 calls)

     PWSCF        :     2.54s CPU         3.04s WALL


   This run was terminated on:  13:24: 9  26Mar2012            

=------------------------------------------------------------------------------=
   JOB DONE.
=------------------------------------------------------------------------------=
