LAMMPS (29 Jan 2012)
# Deformation and stress-strain curve for Au nanowire
# Basic settings
units metal
atom_style atomic
boundary m m p
# Geometry
lattice fcc 4.08 origin 0 0 0 orient z 1 1 0 orient x 0 0 -1 orient y -1 1 0
Lattice spacing in x,y,z = 4.08 5.76999 5.76999
region box block 0 10 0 5 0 40 units lattice side in
create_box 1 box
Created orthogonal box = (0 0 0) to (40.8 28.85 230.8)
  1 by 1 by 4 MPI processor grid
create_atoms 1 box
Created 16310 atoms
region 1  prism 5.1 10.0 0 5 -1 1000 10 0 0
region 2  prism -1.0 4.9 0 5 -1 1000 -10 0 0
region 3  prism 14.9 20.0 0 5 -1 1000 -10 0 0
region 4  prism -20 -4.5 0 5 -1 1000 10 0 0
group del1 region 1
1600 atoms in group del1
group del2 region 2
2000 atoms in group del2
group del3 region 3
2155 atoms in group del3
group del4 region 4
2586 atoms in group del4
##### Trim corners
delete_atoms group del1
Deleted 1600 atoms, new total = 14710
delete_atoms group del2
Deleted 2000 atoms, new total = 12710
delete_atoms group del3
Deleted 2155 atoms, new total = 10555
delete_atoms group del4
Deleted 2555 atoms, new total = 8000
# Specify inter-atomic potential
#pair_style eam
#pair_coeff * * Au_u3.eam
mass 1 197
#pair_style		lj/cut/coul/cut 7.25 7.25
#pair_coeff		1 1 0.00169 2.934
pair_style		lj/cut 6.4225
pair_coeff		1 1 0.458 2.569
#pair_style		lj/cut 7.25
#pair_coeff		1 1 0.039 2.934
#pair_style		lj/cut 2.5
#pair_coeff		1 1 1.0 2.5 
pair_modify          shift yes

neighbor 1.5 bin
neigh_modify every 1 delay 1
# Thermal equilibrium at 300K
velocity all create 300 20199349 dist gaussian
velocity all zero linear
velocity all zero angular


thermo 200
#thermo_style custom step atoms temp pe lx ly lz pzz press
thermo_style custom step atoms temp pe lz pzz 
thermo_modify lost warn norm yes flush yes
timestep 0.005 #ps
#dump 1 all cfg 20000 initialpos.*.cfg id type xs ys zs # Visualize with AtomEye
fix 1 all npt temp 300.0 300.0 10.0 z 0.0 0.0 10.0 drag 2.0
run 20000
Memory usage per processor = 2.47598 Mbytes
Step Atoms Temp PotEng Lz Pzz 
       0     8000    299.97374   -2.9612587    230.79965   -62372.702 
     200     8000    283.40545   -2.9679126    226.33028     62.45051 
     400     8000    336.32083   -2.9793328    225.30864    4086.4516 
     600     8000    293.88227   -2.9745109    227.17503    2084.4428 
     800     8000    271.52037   -2.9732666    224.95098    19798.616 
    1000     8000    264.16255   -2.9730404    227.37689   -7380.5251 
    1200     8000    265.27631   -2.9737495    225.85011    683.76974 
    1400     8000    260.95995    -2.973131    227.03568   -8842.1095 
    1600     8000    259.08173   -2.9728964    226.17455   -4327.9539 
    1800     8000    278.77378   -2.9754216    226.50718    3293.3574 
    2000     8000    268.78278    -2.974029    225.89539    5766.1549 
    2200     8000    274.52167   -2.9746802    226.62013    1160.1469 
    2400     8000    271.77425   -2.9742673    226.20077       704.28 
    2600     8000    257.26156   -2.9722568    226.68766   -5677.0416 
    2800     8000    266.65154   -2.9734153    226.35049   -1353.3279 
    3000     8000    275.51007   -2.9744097    226.46926   -272.20204 
    3200     8000    272.57198   -2.9739333    226.16864    4465.6954 
    3400     8000    278.65128   -2.9746374    226.34762    3141.7907 
    3600     8000    267.63932   -2.9730769    226.51254   -3066.2024 
    3800     8000     268.8462   -2.9731241    226.46616   -1585.7026 
    4000     8000    274.95407   -2.9738047    226.47627   -2139.2946 
    4200     8000    275.37746   -2.9737491    226.37523    358.00004 
    4400     8000     275.4025    -2.973636    226.33158    3432.5367 
    4600     8000    275.00301   -2.9734844    226.35467    448.19199 
    4800     8000     276.1583   -2.9735102    226.46162   -26.258369 
    5000     8000    276.09951   -2.9733927    226.50558   -2631.7762 
    5200     8000    275.20561   -2.9731765    226.47841   -1447.7321 
    5400     8000    278.25758   -2.9734556    226.35657    1747.1057 
    5600     8000    276.43242   -2.9731106    226.41848    522.73233 
    5800     8000    277.80108   -2.9731789    226.39064    1809.6937 
    6000     8000    279.46777   -2.9732932    226.49762   -1480.7466 
    6200     8000     277.2049   -2.9728879    226.44468   -1078.3641 
    6400     8000    277.48237   -2.9728201    226.48528   -321.11033 
    6600     8000    275.95267   -2.9725187    226.40558    154.48828 
    6800     8000    284.45349   -2.9735175    226.40108    1692.5399 
    7000     8000    280.10027    -2.972855    226.38606    151.12335 
    7200     8000    278.59087   -2.9725556     226.4992   -1111.9418 
    7400     8000    282.91574   -2.9730167    226.43518   -289.56282 
    7600     8000    276.15735   -2.9720439    226.48221   -708.50567 
    7800     8000    283.83372   -2.9729434    226.37026    1057.0449 
    8000     8000    280.39271    -2.972399    226.47264    275.53019 
    8200     8000    285.87108    -2.973013    226.38854    537.43538 
    8400     8000    281.51878   -2.9723558    226.48526   -180.95585 
    8600     8000    280.64073   -2.9721483    226.47077   -1462.5192 
    8800     8000    281.09128   -2.9721195    226.45198   -13.409089 
    9000     8000    284.64829   -2.9724896    226.42643   -19.792279 
    9200     8000    280.99345   -2.9719242    226.40717    1352.6204 
    9400     8000    285.47347    -2.972422    226.45473    308.67336 
    9600     8000    286.33998   -2.9724456    226.48763   -1370.5387 
    9800     8000    283.23891   -2.9719555    226.48497   -238.04939 
   10000     8000    283.64251    -2.971924    226.44296   -392.80025 
   10200     8000    283.99452   -2.9718865    226.42344    773.75676 
   10400     8000    287.23033   -2.9722259    226.45516     393.9186 
   10600     8000    284.35127   -2.9717689      226.479    -679.9287 
   10800     8000    286.08494   -2.9719103    226.47019   -211.54872 
   11000     8000    284.03512   -2.9715631    226.46491   -487.87319 
   11200     8000    287.23337   -2.9719018    226.44692    358.09184 
   11400     8000    287.98374   -2.9719174    226.44402    487.77548 
   11600     8000    286.62924   -2.9716701    226.45629    109.54448 
   11800     8000     287.9618   -2.9717688    226.44905    70.812029 
   12000     8000    285.47076   -2.9713735    226.48266   -971.10847 
   12200     8000    287.85938    -2.971611    226.49152   -524.33723 
   12400     8000     285.9953   -2.9712938    226.42341     708.0486 
   12600     8000     286.8504   -2.9713353    226.43667    661.33886 
   12800     8000    289.02822   -2.9715509    226.44254    796.27714 
   13000     8000    285.78506   -2.9710634    226.50138   -775.08903 
   13200     8000    286.79216   -2.9711288    226.49957   -661.88977 
   13400     8000    287.76627   -2.9711908    226.45967   -32.074024 
   13600     8000    289.10346   -2.9712983    226.44931   -52.901716 
   13800     8000    289.04491   -2.9712257    226.45698    833.47959 
   14000     8000    292.39126   -2.9716008    226.41725    492.20181 
   14200     8000    288.44683   -2.9710248    226.49898   -542.41605 
   14400     8000    289.75041   -2.9711346    226.48815   -853.81716 
   14600     8000    286.38398   -2.9706396    226.50012   -532.99485 
   14800     8000    294.16237    -2.971595    226.41364    582.60024 
   15000     8000     287.8988   -2.9707215    226.45875    736.80496 
   15200     8000     294.9848   -2.9715891    226.43316    533.40353 
   15400     8000     291.8316   -2.9711286    226.49331   -219.67086 
   15600     8000    291.12439   -2.9709838    226.46815   -509.75524 
   15800     8000    288.15442   -2.9705426    226.50141    -240.4478 
   16000     8000    288.45696   -2.9705306    226.45804    383.91811 
   16200     8000    294.18889   -2.9712224    226.46326    544.32446 
   16400     8000    294.31265   -2.9711894    226.44777    773.99821 
   16600     8000    292.23842   -2.9708742    226.45774    79.102232 
   16800     8000    295.06076   -2.9711963    226.50424   -947.49733 
   17000     8000    293.42811   -2.9709342    226.50249   -944.84186 
   17200     8000    290.26066   -2.9704835    226.48349   -192.89404 
   17400     8000    294.65089   -2.9710062    226.43585    1003.2752 
   17600     8000    294.83367   -2.9709873    226.44767    756.09445 
   17800     8000    294.55603   -2.9709061    226.47312   -7.9063837 
   18000     8000    291.82781   -2.9705074    226.48857    -414.8888 
   18200     8000    291.92668   -2.9704799    226.47808   -478.08205 
   18400     8000    296.55778   -2.9710432    226.49967   -215.71039 
   18600     8000    295.89941   -2.9709162    226.44402    187.88112 
   18800     8000    294.44848   -2.9706917    226.44342    678.00361 
   19000     8000    294.17271   -2.9706159    226.46932    46.716523 
   19200     8000    291.96287   -2.9702928    226.49526   -501.41157 
   19400     8000    293.91526   -2.9705115    226.48874   -630.51178 
   19600     8000    293.45049   -2.9704165    226.50637   -177.09217 
   19800     8000    297.96167   -2.9709682     226.4537    555.06732 
   20000     8000    295.29894   -2.9705906    226.43564    737.15661 
Loop time of 46.7471 on 4 procs for 20000 steps with 8000 atoms

Pair  time (%) = 39.3573 (84.192)
Neigh time (%) = 0.301565 (0.6451)
Comm  time (%) = 3.11262 (6.65844)
Outpt time (%) = 0.0271058 (0.057984)
Other time (%) = 3.94849 (8.44649)

Nlocal:    2000 ave 2010 max 1993 min
Histogram: 1 1 0 0 1 0 0 0 0 1
Nghost:    550 ave 557 max 540 min
Histogram: 1 0 0 0 0 1 0 0 1 1
Neighs:    102799 ave 103585 max 102190 min
Histogram: 2 0 0 0 0 0 0 1 0 1

Total # of neighbors = 411197
Ave neighs/atom = 51.3996
Neighbor list builds = 70
Dangerous builds = 0
# Tensile loading
unfix 1
#undump 1
reset_timestep 0
compute MyTemp all temp
compute Mype all pe
compute peratom all stress/atom
#compute peatom all pe/atom
#compute	pe all reduce sum c_peatom
compute MyDisp all displace/atom 
# Computing time-averaged quantities - T & pe
fix ThermoAve all ave/time 1 100 200 c_MyTemp c_Mype
fix AveDz all ave/spatial 1 100 200 z 0.0 500.0 c_MyDisp[3] norm all file disp.txt
thermo 200
thermo_style custom step atoms f_ThermoAve[1] f_ThermoAve[2] lz vol pzz pe
WARNING: New thermo_style command, previous thermo_modify settings will be lost (output.cpp:471)
#thermo_style custom step atoms lz pzz pe
thermo_modify lost warn norm yes flush yes
fix 1 all nvt temp 300.0 300.0 10.0
#log 	1E9e_300K_LJ.txt
#fix 2 all deform 200 z erate 0.0001 # strain rate = 0.0001/ps = 10^8/sec
fix 2 all deform 200 z erate 0.001 # strain rate = 0.001/ps = 10^9/sec
#dump 2 all cfg 20000 pos.*.cfg id type xs ys zs # Visualize with AtomEye
#dump 2 all cfg 5000 pos.*.cfg id type xs ys zs # Visualize with AtomEye
#dump 2 all xyz 50000 Au_*.xyz id type c_MyDisp# Visualize with MDL
#dump_modify 2 element Au
#run 500000
run 100000
Memory usage per processor = 3.16267 Mbytes
Step Atoms ThermoAv ThermoAv Lz Volume Pzz PotEng 
       0     8000            0            0    226.43564    266783.26     737.2875   -2.9705906 
     200     8000    295.65793   -2.9706334    226.66207    267050.04    570.89348   -2.9704554 
     400     8000    295.20832   -2.9705203    226.88851    267383.16   -951.98261   -2.9701077 
     600     8000    294.90441   -2.9703804    227.11494    267650.01   -3588.9485   -2.9700415 
     800     8000    294.36094   -2.9701405    227.34138    268016.43   -4983.8098   -2.9698323 
    1000     8000    294.31781   -2.9699228    227.56781    268196.03   -6047.8594   -2.9704228 
    1200     8000    294.04772   -2.9696396    227.79425    268462.89   -7829.3853   -2.9696824 
    1400     8000    294.32883   -2.9693787    228.02069    268398.19   -8563.6494   -2.9691839 
    1600     8000     294.7314    -2.969103    228.24712    268664.72   -10631.295   -2.9685097 
    1800     8000    294.68075   -2.9687176    228.47356    269103.11   -12487.695   -2.9683051 
    2000     8000    294.47161   -2.9682678    228.69999    269369.81   -14162.643   -2.9684627 
    2200     8000    294.50158   -2.9678153    228.92643    269494.12   -15964.727   -2.9678853 
    2400     8000    294.01274   -2.9672658    229.15286    269760.68   -16402.363   -2.9672577 
    2600     8000    294.24828   -2.9668121     229.3793    271292.61   -17841.849   -2.9671156 
    2800     8000      294.546   -2.9663485    229.60574    271560.42   -18454.777   -2.9660739 
    3000     8000    294.34715   -2.9658149    229.83217    270530.77   -19930.723    -2.965663 
    3200     8000    294.50108   -2.9653018    230.05861     270797.3    -21983.75   -2.9654925 
    3400     8000     294.4706   -2.9647216    230.28504    271437.53   -22671.132   -2.9649224 
    3600     8000    294.11378   -2.9640857    230.51148    271704.43   -24737.263   -2.9642469 
    3800     8000    293.87009   -2.9634171    230.73791    271932.24   -25117.968   -2.9631291 
    4000     8000     293.8123   -2.9627621    230.96435     272199.1   -26690.969   -2.9630163 
    4200     8000    293.80733   -2.9620751    231.19078    273015.55   -27093.457    -2.961994 
    4400     8000    293.85814   -2.9613811    231.41722    272534.74   -27661.804   -2.9616783 
    4600     8000    294.16978   -2.9607052    231.64366    273129.34   -29131.912   -2.9611142 
    4800     8000    294.52857   -2.9599987    231.87009    273396.33   -29818.489   -2.9597436 
    5000     8000    294.08158   -2.9591688    232.09653    273381.35   -31669.686   -2.9593377 
    5200     8000    294.33163   -2.9583894    232.32296    273648.07   -32109.567   -2.9583132 
    5400     8000    293.98732   -2.9575251     232.5494    273728.84   -33823.167   -2.9575214 
    5600     8000    294.55472   -2.9567439    232.77583    273995.37   -34378.199   -2.9566111 
    5800     8000    294.31974   -2.9558487    233.00227     274963.3   -34911.904   -2.9556618 
    6000     8000    294.42331   -2.9549837    233.22871    275230.51    -35575.94   -2.9550662 
    6200     8000    294.73724   -2.9541318    233.45514    275669.23   -35876.543   -2.9544732 
    6400     8000    294.96687   -2.9532645    233.68158    275613.88   -36873.752   -2.9531808 
    6600     8000    295.58671   -2.9524277    233.90801    276392.83   -37144.967   -2.9523477 
    6800     8000    295.49947   -2.9514948    234.13445    276377.86   -38823.271   -2.9515918 
    7000     8000    295.70741   -2.9505656    234.36088    276645.15   -39041.039   -2.9504746 
    7200     8000    295.26289   -2.9495492    234.58732    277081.62   -40122.298   -2.9488376 
    7400     8000    295.30562   -2.9485724    234.81376    277245.59   -40914.757   -2.9485316 
    7600     8000    295.46333   -2.9475924    235.04019     277097.1   -41596.145   -2.9479892 
    7800     8000      295.639   -2.9466028    235.26663    277364.05   -42072.236   -2.9467572 
    8000     8000    295.79462    -2.945603    235.49306    277417.08   -42643.359   -2.9458505 
    8200     8000    295.82853   -2.9445788     235.7195    278262.65   -42990.172     -2.94448 
    8400     8000    295.93693   -2.9435534    235.94593       278176   -42943.165   -2.9433327 
    8600     8000    296.46328   -2.9425852    236.17237    278442.96   -44061.534   -2.9428578 
    8800     8000    296.67093   -2.9415543     236.3988    278966.21   -44170.781   -2.9417157 
    9000     8000    296.82812   -2.9405139    236.62524    279233.42   -45379.491    -2.940717 
    9200     8000    296.90696   -2.9394378    236.85168    279967.77   -45807.994    -2.939392 
    9400     8000    296.79279   -2.9383267    237.07811    280235.42   -46899.391   -2.9383984 
    9600     8000    296.91637   -2.9372256    237.30455    280959.11   -47380.894   -2.9373739 
    9800     8000     296.9276   -2.9360981    237.53098    281818.04   -47037.754   -2.9355072 
   10000     8000    297.02485   -2.9349906    237.75742    282086.69   -47761.152   -2.9351882 
   10200     8000     296.9732   -2.9338494    237.98385    282000.13   -47879.535   -2.9340481 
   10400     8000    297.37336   -2.9327678    238.21029    281803.22   -48204.002   -2.9332038 
   10600     8000      297.259   -2.9316155    238.43673    281301.35   -47999.222   -2.9320327 
   10800     8000    297.40993   -2.9305066    238.66316    281568.49   -48703.315   -2.9307632 
   11000     8000    297.73333   -2.9294065     238.8896    282406.23   -48618.944   -2.9292251 
   11200     8000    297.62754   -2.9282526    239.11603    282681.47   -49404.967   -2.9285345 
   11400     8000    298.25917   -2.9271769    239.34247    282949.16   -50121.244   -2.9275692 
   11600     8000    298.15265   -2.9259927     239.5689    283873.01    -50582.46    -2.925815 
   11800     8000    297.94724   -2.9247852    239.79534    284141.32   -50662.093    -2.924505 
   12000     8000    298.00427   -2.9236125    240.02177     284467.7   -51420.924   -2.9235065 
   12200     8000    297.99176   -2.9224148    240.24821    284736.07   -50911.583    -2.922459 
   12400     8000    298.53708   -2.9213011    240.47465     284610.7   -51814.544   -2.9213468 
   12600     8000     298.0702   -2.9200424    240.70108     284878.7   -51251.775   -2.9197214 
   12800     8000    298.24077   -2.9188792    240.92752     285901.9   -51848.249   -2.9188447 
   13000     8000    298.12185    -2.917662    241.15395    286185.11   -51098.102   -2.9181319 
   13200     8000    298.54476   -2.9165361    241.38039    285840.79   -51432.523   -2.9161211 
   13400     8000    298.52782   -2.9153491    241.60682    286191.47   -51023.695    -2.915787 
   13600     8000    298.37979   -2.9141544    241.83326    286459.69   -51763.405   -2.9140482 
   13800     8000    298.54201   -2.9129872     242.0597    286422.94   -51775.251   -2.9131641 
   14000     8000    298.57382   -2.9118014    242.28613    286955.73   -51962.309   -2.9118794 
   14200     8000    314.44164    -2.912661    242.51257    287187.76   -48796.837   -2.9129722 
   14400     8000    324.91368   -2.9129145      242.739     287249.2   -49234.766    -2.913883 
   14600     8000    362.61833   -2.9167596    242.96544    287461.25   -43988.394   -2.9186851 
   14800     8000    402.14159   -2.9211336    243.19187    287629.17   -35794.274   -2.9224562 
   15000     8000    430.59668   -2.9245416    243.41831    289057.69   -25641.338   -2.9255404 
   15200     8000    431.95316   -2.9247731    243.64474    289240.29   -24413.404    -2.926702 
   15400     8000    444.36659   -2.9264568    243.87118    288715.29   -19122.013   -2.9266894 
   15600     8000    446.22577   -2.9269842    244.09762    288514.71   -21235.839   -2.9276888 
   15800     8000     439.7402    -2.926477    244.32405    293025.33   -20480.384   -2.9264132 
   16000     8000    440.64103   -2.9269617    244.55049    291996.59   -25611.422   -2.9278319 
   16200     8000    438.92655   -2.9270498    244.77692    299349.67    -25569.14   -2.9278493 
   16400     8000    436.36473   -2.9270434    245.00336    303059.04   -26733.199   -2.9261871 
   16600     8000    427.26981   -2.9261686    245.22979    308019.45   -27866.349   -2.9260873 
   16800     8000    422.21162    -2.925769    245.45623    311806.66   -28253.089   -2.9258141 
   17000     8000    415.39526   -2.9251248    245.68267    318101.18   -30206.675   -2.9243121 
   17200     8000    411.15802   -2.9247492     245.9091    321416.13   -29748.055   -2.9248748 
   17400     8000    401.07954    -2.923604    246.13554    324652.08   -31155.727   -2.9233844 
   17600     8000    399.14588   -2.9234542    246.36197    325280.54   -28919.377   -2.9241986 
   17800     8000    411.68577   -2.9252427    246.58841    330467.59   -24721.317   -2.9251634 
   18000     8000    414.45767   -2.9259092    246.81484    327902.46   -22955.477   -2.9267447 
   18200     8000    415.78435   -2.9264622    247.04128    324730.47   -23067.879   -2.9265319 
   18400     8000    420.72172   -2.9275088    247.26772    325876.54   -20703.347   -2.9276695 
   18600     8000    417.26121   -2.9275421    247.49415    322573.48   -19698.758   -2.9272816 
   18800     8000    417.86571   -2.9281183    247.72059    319592.56   -19218.504   -2.9285988 
   19000     8000    413.06126   -2.9280313    247.94702    323058.14   -18265.191   -2.9290759 
   19200     8000     412.6517   -2.9285332    248.17346    315526.81    -20421.37   -2.9277457 
   19400     8000    403.56037   -2.9278521    248.39989    311932.45   -20589.199   -2.9276559 
   19600     8000    402.02565   -2.9281338    248.62633    311984.14   -21514.055   -2.9280946 
   19800     8000    395.04385   -2.9276757    248.85276    305558.08   -21231.144   -2.9279668 
   20000     8000    393.66786    -2.927945     249.0792    305135.43    -21794.28   -2.9274095 
   20200     8000    387.10502   -2.9275113    249.30564    302236.13   -21055.761   -2.9287331 
   20400     8000    391.63918   -2.9285265    249.53207    300667.01    -18482.19   -2.9287541 
   20600     8000    388.17688   -2.9285716    249.75851    300735.34   -18120.204   -2.9286386 
   20800     8000    388.37416   -2.9290929    249.98494    298946.68   -17386.372   -2.9294451 
   21000     8000    385.89621   -2.9292863    250.21138    300833.35   -14317.623   -2.9299817 
   21200     8000    385.44361   -2.9297973    250.43781    306005.29   -13175.727   -2.9302932 
   21400     8000    385.16958   -2.9303534    250.66425    306986.64   -14872.444   -2.9308391 
   21600     8000    382.21457   -2.9305216    250.89069     314057.4    -15460.66   -2.9312142 
   21800     8000    377.48429   -2.9304281    251.11712    316354.79   -16364.093   -2.9305808 
   22000     8000    378.44413   -2.9310351    251.34356     326278.9   -18766.611    -2.931168 
   22200     8000    372.40245   -2.9306655    251.56999    333082.77   -20482.485   -2.9310243 
   22400     8000    366.41869   -2.9302276    251.79643    334980.39   -21134.189   -2.9303804 
   22600     8000    363.50469   -2.9301434    252.02286    339713.43   -21752.778   -2.9306791 
   22800     8000    361.93406   -2.9301944     252.2493    344962.97   -22303.748   -2.9305419 
   23000     8000    352.74926   -2.9292173    252.47573     346813.7   -23753.595   -2.9289871 
   23200     8000     349.4462    -2.928929    252.70217    348966.94   -23518.565   -2.9297197 
   23400     8000    349.34087    -2.929033    252.92861    349647.29   -23249.232   -2.9296659 
   23600     8000     349.5746   -2.9291821    253.15504    350848.59   -21691.238   -2.9291053 
   23800     8000    348.67257   -2.9292143    253.38148    351155.01   -22435.133   -2.9294219 
   24000     8000    349.68749   -2.9294735    253.60791    348945.24   -22972.357   -2.9294139 
   24200     8000    346.73699   -2.9292121    253.83435    349294.98   -21082.736   -2.9295297 
   24400     8000    346.82587   -2.9293814    254.06078    346367.55   -19252.374   -2.9298103 
   24600     8000    352.86731   -2.9303773    254.28722    342521.79   -21076.818   -2.9304612 
   24800     8000    348.55026   -2.9300072    254.51366    338315.37   -21788.665   -2.9299634 
   25000     8000    341.19263   -2.9292198    254.74009     337960.5   -20531.804   -2.9291197 
   25200     8000     341.0172   -2.9293661    254.96653    331021.01   -22426.396   -2.9298767 
   25400     8000    345.48802   -2.9300786    255.19296    327915.59   -22441.395   -2.9305418 
   25600     8000    337.14873   -2.9291383     255.4194    322814.86   -20623.783   -2.9287874 
   25800     8000    332.69323   -2.9287202    255.64583    320410.79   -20365.853   -2.9289855 
   26000     8000    344.89977    -2.930454    255.87227    314942.96   -18470.131   -2.9311159 
   26200     8000     343.1176   -2.9304564     256.0987    315042.41   -16009.506   -2.9300159 
   26400     8000    330.20954   -2.9290571    256.32514    312154.54   -14399.552   -2.9293216 
   26600     8000    337.18126   -2.9302441    256.55158    312464.05   -14428.066    -2.931284 
   26800     8000     338.5984    -2.930726    256.77801    308971.01   -13136.208   -2.9306842 
   27000     8000    332.76501   -2.9302954    257.00445    307400.54   -13349.907   -2.9297672 
   27200     8000    327.56768   -2.9299267    257.23088    307221.88   -14103.468   -2.9303951 
   27400     8000    328.26169   -2.9302788    257.45732    309311.88   -10576.846    -2.930788 
   27600     8000    328.03511   -2.9305806    257.68375    311115.24   -12894.093    -2.930824 
   27800     8000    325.14265   -2.9304745    257.91019    309930.79   -12020.921   -2.9311958 
   28000     8000    325.54393   -2.9308005    258.13663    313887.12   -11343.705   -2.9311554 
   28200     8000    325.50424   -2.9310737    258.36306    315100.74   -11301.039   -2.9315271 
   28400     8000    325.86517   -2.9313949     258.5895    320747.36   -11180.695    -2.931149 
   28600     8000    324.90631   -2.9315411    258.81593    322183.14   -10282.734   -2.9316614 
   28800     8000    325.65894   -2.9319258    259.04237    334022.81   -11203.929   -2.9320865 
   29000     8000    325.51908    -2.932163     259.2688    342498.54   -13802.375   -2.9322514 
   29200     8000    324.04486   -2.9321611    259.49524    346848.92   -14842.068   -2.9323501 
   29400     8000    321.12352   -2.9319347    259.72168    355312.38   -15954.887   -2.9324791 
   29600     8000    320.24688   -2.9319313    259.94811    362667.93   -15818.758   -2.9318697 
   29800     8000    314.88999   -2.9313319    260.17455    367390.59   -16580.012   -2.9314698 
   30000     8000    311.26922   -2.9309055    260.40098    376351.98   -17259.248   -2.9305734 
   30200     8000    308.98158   -2.9305998    260.62742    382846.56   -16971.679   -2.9308454 
   30400     8000    311.13517   -2.9308462    260.85385    386708.76    -16059.39   -2.9312146 
   30600     8000    307.60929   -2.9303647    261.08029     388682.3   -17027.382   -2.9305056 
   30800     8000    304.92114   -2.9299451    261.30672    391680.15   -18363.035   -2.9293341 
   31000     8000    300.26957   -2.9292099    261.53316    393203.31   -18014.203    -2.929287 
   31200     8000    298.81435   -2.9288709     261.7596    396159.24   -19131.832    -2.928763 
   31400     8000    299.85805   -2.9287944    261.98603    393760.94   -19693.007   -2.9290948 
   31600     8000    300.47222   -2.9286352    262.21247    389244.97     -20144.2   -2.9288096 
   31800     8000     299.3706   -2.9282355     262.4389    387560.97   -19950.531    -2.928187 
   32000     8000    301.16715   -2.9282042    262.66534    381740.45   -20893.235   -2.9284758 
   32200     8000     303.1168   -2.9281697    262.89177    376363.48   -20400.568   -2.9280418 
   32400     8000    304.87953   -2.9281284    263.11821    369147.13   -18411.182   -2.9284657 
   32600     8000    311.08547   -2.9287255    263.34465    359528.65   -15948.597   -2.9293048 
   32800     8000    316.76262   -2.9293524    263.57108     350121.2   -14773.221    -2.929401 
   33000     8000    312.73759    -2.928791    263.79752    347325.12   -14321.411   -2.9285858 
   33200     8000    314.40489   -2.9289922    264.02395    342575.58    -14551.72   -2.9290349 
   33400     8000     307.8964   -2.9281438    264.25039    335504.79   -16591.601   -2.9286029 
   33600     8000    305.37261   -2.9277699    264.47682     329879.4   -17436.381   -2.9273499 
   33800     8000    302.68219   -2.9273519    264.70326    322230.18   -17445.756   -2.9277053 
   34000     8000    300.83114   -2.9270367    264.92969    318683.64   -16333.209   -2.9272438 
   34200     8000    301.80969   -2.9271005    265.15613    318331.24   -15815.356   -2.9274986 
   34400     8000    298.62086   -2.9266239    265.38257    315967.47   -14802.442   -2.9266269 
   34600     8000    296.49264   -2.9262942      265.609    315049.32    -15090.99   -2.9263357 
   34800     8000    296.67805   -2.9262362    265.83544    313876.02   -14693.682   -2.9265546 
   35000     8000    298.71235   -2.9264115    266.06187    313175.64   -15284.528   -2.9268177 
   35200     8000    297.77566   -2.9261797    266.28831    313516.51   -15444.961    -2.926057 
   35400     8000     296.8168   -2.9259313    266.51474    314120.15   -15617.353    -2.926263 
   35600     8000    298.45963   -2.9260024    266.74118    313975.24   -15303.894   -2.9265981 
   35800     8000    297.32973    -2.925709    266.96762    314637.69    -16450.67   -2.9262425 
   36000     8000    298.68616   -2.9257021    267.19405    316897.08   -16814.437   -2.9257689 
   36200     8000    298.81553   -2.9255207    267.42049    317930.71    -15328.18   -2.9256678 
   36400     8000     295.9557    -2.924976    267.64692     318369.2   -17872.241   -2.9247354 
   36600     8000    294.57817   -2.9245577    267.87336    319740.84   -17827.156   -2.9247307 
   36800     8000    295.52924   -2.9244234    268.09979    321812.35   -18436.895     -2.92459 
   37000     8000    295.56645   -2.9241451    268.32623    323338.12   -19953.583    -2.924231 
   37200     8000    295.80307   -2.9238481    268.55266    321839.48   -19674.836   -2.9236534 
   37400     8000    295.99721   -2.9235384     268.7791    322013.34   -19414.099     -2.92363 
   37600     8000    299.06171   -2.9235999    269.00554    323018.08    -18444.11   -2.9240293 
   37800     8000    302.55949   -2.9237367    269.23197    320471.94   -15768.353   -2.9240808 
   38000     8000    301.13938   -2.9233026    269.45841    318300.18   -14329.476    -2.923351 
   38200     8000    300.61434   -2.9230206    269.68484    317440.16    -13425.91   -2.9227507 
   38400     8000      303.111   -2.9231468    269.91128     321544.6   -13994.674   -2.9234412 
   38600     8000     301.4556   -2.9227295    270.13771    321748.67   -17129.135   -2.9225336 
   38800     8000    300.05199    -2.922279    270.36415    325107.56   -16690.597   -2.9230845 
   39000     8000     303.5116   -2.9224644    270.59059    324452.05   -18055.943   -2.9223405 
   39200     8000    300.69956   -2.9218169    270.81702    323063.39   -16286.997   -2.9219209 
   39400     8000    304.80926   -2.9221076    271.04346    325796.08   -14067.778   -2.9221005 
   39600     8000    299.27595   -2.9212047    271.26989    330138.23   -12467.608   -2.9213258 
   39800     8000    302.22351   -2.9214305    271.49633     331396.4   -13318.608   -2.9215976 
   40000     8000    308.14026   -2.9220276    271.72276    329308.52   -15594.225   -2.9217959 
   40200     8000    302.60949   -2.9211095     271.9492    330042.25   -16547.387   -2.9214087 
   40400     8000    303.80131   -2.9210467    272.17564    329774.48   -17697.075   -2.9215774 
   40600     8000    302.71075   -2.9206715    272.40207    327351.24   -16614.414   -2.9210029 
   40800     8000    303.16947    -2.920527    272.62851    326560.99    -15305.59   -2.9210961 
   41000     8000    304.54884    -2.920535    272.85494    323409.32    -14605.19   -2.9206808 
   41200     8000    299.07212   -2.9196773    273.08138    322240.96   -14096.209   -2.9203975 
   41400     8000    306.85779   -2.9205511    273.30781    324564.05   -15311.679   -2.9210603 
   41600     8000    301.39442   -2.9196956    273.53425    327036.56   -16659.344   -2.9194692 
   41800     8000    298.73564   -2.9191659    273.76068    330367.67   -18689.927   -2.9190352 
   42000     8000     301.1662   -2.9192423    273.98712    329721.46   -19094.245   -2.9193496 
   42200     8000    300.58874   -2.9189213    274.21356    326610.64   -18950.516   -2.9191714 
   42400     8000    299.94571   -2.9185985    274.43999    325736.59   -17697.824   -2.9186532 
   42600     8000    297.68947   -2.9180906    274.66643     327051.6   -16831.897   -2.9179942 
   42800     8000    294.85773   -2.9175097    274.89286    329507.22   -17962.794   -2.9172763 
   43000     8000    299.75916    -2.917891     275.1193    329980.41   -17740.784   -2.9179762 
   43200     8000    296.20968   -2.9171792    275.34573    328590.52   -19997.599   -2.9172451 
   43400     8000    296.56975    -2.916913    275.57217    328951.62   -19645.559   -2.9169553 
   43600     8000    300.06591   -2.9170528    275.79861    328980.41   -19734.728   -2.9169995 
   43800     8000    299.35537   -2.9166439    276.02504    328716.14   -18064.238   -2.9173357 
   44000     8000    303.18953   -2.9168595    276.25148    327171.12   -15437.794   -2.9167933 
   44200     8000    302.15497    -2.916509    276.47791    325436.13   -13790.944   -2.9167673 
   44400     8000    302.99177   -2.9164418    276.70435    325702.66   -12850.845    -2.915865 
   44600     8000     304.5615    -2.916495    276.93078     325969.2   -14671.272   -2.9165203 
   44800     8000       303.18   -2.9161412    277.15722    326235.73   -15417.739   -2.9161237 
   45000     8000    303.22992   -2.9159618    277.38365    326502.26    -14799.32    -2.915897 
   45200     8000    303.79757   -2.9158687    277.61009    326816.79   -16176.178   -2.9157998 
   45400     8000     303.6434   -2.9156601    277.83653    327035.33   -15269.721   -2.9158418 
   45600     8000    304.86964   -2.9156559    278.06296    327301.86   -16862.299   -2.9156245 
   45800     8000    303.01102   -2.9152301     278.2894     328661.1   -16268.103   -2.9150205 
   46000     8000    300.99379   -2.9147965    278.51583    328533.91    -16257.69   -2.9144365 
   46200     8000     302.0022   -2.9147562    278.74227    329325.45   -15962.601   -2.9145479 
   46400     8000    301.03524   -2.9144647     278.9687    329127.17   -14814.895   -2.9146542 
   46600     8000    300.88114   -2.9143006    279.19514    330349.59   -16016.796   -2.9146532 
   46800     8000    301.87647   -2.9142584    279.42158    329089.97   -16889.293   -2.9139887 
   47000     8000    299.31262    -2.913741    279.64801    330320.52   -17574.523   -2.9136942 
   47200     8000    300.60479   -2.9136996    279.87445    329434.12       -18013   -2.9144455 
   47400     8000    301.37932    -2.913582    280.10088    329700.65   -16930.392   -2.9135859 
   47600     8000    300.09124   -2.9132212    280.32732    330590.83   -17320.581   -2.9128602 
   47800     8000     296.2397   -2.9125144    280.55375    330233.72   -18196.319   -2.9123582 
   48000     8000    296.37199   -2.9122929    280.78019    330845.03   -17771.169   -2.9122456 
   48200     8000    297.19186   -2.9121557    281.00662    331796.04   -16786.601   -2.9121142 
   48400     8000    302.83141   -2.9126546    281.23306    332343.16    -17494.45   -2.9124723 
   48600     8000    297.82051   -2.9117652     281.4595    332127.73   -18145.417   -2.9116082 
   48800     8000    297.56276   -2.9114718    281.68593    332945.35   -17639.464   -2.9116215 
   49000     8000    299.69426   -2.9114867    281.91237    334258.06    -17891.04   -2.9117154 
   49200     8000    301.49164   -2.9114521     282.1388    337334.25   -17413.756    -2.911583 
   49400     8000    299.90624   -2.9109889    282.36524    336223.33   -17310.217   -2.9111102 
   49600     8000    295.38425   -2.9101404    282.59167    337985.13   -18275.152   -2.9101431 
   49800     8000    295.83115   -2.9099051    282.81811    336552.47   -18285.456   -2.9096855 
   50000     8000    300.29957   -2.9101782    283.04455    336650.46   -17554.163   -2.9102681 
   50200     8000    301.54634   -2.9100512    283.27098    334857.72   -18065.015   -2.9102406 
   50400     8000    298.44709   -2.9093556    283.49742    334666.24   -17854.536   -2.9098171 
   50600     8000    295.80666   -2.9087194    283.72385    333965.17   -19060.831   -2.9092609 
   50800     8000    296.91374   -2.9085356    283.95029    336033.67   -19987.026   -2.9085665 
   51000     8000    298.73095   -2.9084152    284.17672    335581.06   -20023.082   -2.9085457 
   51200     8000    298.23626   -2.9079897    284.40316    335079.54     -19144.7   -2.9081231 
   51400     8000     297.7837   -2.9075859     284.6296    335810.58   -17950.429   -2.9075649 
   51600     8000    297.26259   -2.9071892    284.85603    336074.47    -16329.37    -2.907243 
   51800     8000    300.60216   -2.9073193    285.08247    336709.66   -17425.223   -2.9081265 
   52000     8000    305.59377   -2.9076436     285.3089    336002.49   -18018.125   -2.9072707 
   52200     8000    303.15574   -2.9070097    285.53534    336184.98   -18806.169    -2.906804 
   52400     8000    303.41415   -2.9067165    285.76177    336795.66   -18519.468   -2.9067522 
   52600     8000    309.27799   -2.9071652    285.98821     336630.5    -16351.81   -2.9071249 
   52800     8000    309.25563   -2.9069224    286.21464     337133.9   -12827.609    -2.906962 
   53000     8000    309.88348   -2.9068582    286.44108    337275.55   -11554.287   -2.9066892 
   53200     8000    311.90406   -2.9070267    286.66752    337430.09   -13708.677   -2.9072249 
   53400     8000    310.86432   -2.9067802    286.89395    337696.63   -15037.307   -2.9064374 
   53600     8000    309.30118   -2.9064612    287.12039    337963.16   -15854.381    -2.906891 
   53800     8000    306.76457   -2.9060224    287.34682    338229.69   -15119.664   -2.9063351 
   54000     8000    305.80777   -2.9058089    287.57326    338772.53   -14844.814   -2.9060848 
   54200     8000    307.86974   -2.9059976    287.79969    340258.95    -15472.94    -2.905742 
   54400     8000     306.4459   -2.9057304    288.02613    340377.64   -15036.664   -2.9059011 
   54600     8000    306.69663   -2.9056966    288.25257    340128.99    -14152.77   -2.9063112 
   54800     8000    305.46033   -2.9054943      288.479    340280.12    -14873.16   -2.9057501 
   55000     8000    305.50035   -2.9054425    288.70544    339846.65   -16125.342   -2.9059079 
   55200     8000    304.71062   -2.9052608    288.93187    342650.48   -17226.611   -2.9051228 
   55400     8000    300.93244   -2.9046656    289.15831    344904.86   -17871.551    -2.904807 
   55600     8000    300.78296   -2.9045113    289.38474    342550.04    -17265.01   -2.9054227 
   55800     8000    309.81475   -2.9055595    289.61118    345802.34   -15706.434   -2.9057562 
   56000     8000    307.98582   -2.9052445    289.83761    350254.88     -15299.4   -2.9055558 
   56200     8000    309.64387   -2.9053927    290.06405    352790.22   -14396.732   -2.9056287 
   56400     8000    308.57303   -2.9052209    290.29049    350741.98   -15365.346   -2.9047318 
   56600     8000      307.267   -2.9050034    290.51692    352006.71    -17834.46   -2.9049725 
   56800     8000    307.67586   -2.9049554    290.74336    358271.56   -18022.308   -2.9045571 
   57000     8000    300.54521   -2.9039207    290.96979    360495.88   -19423.125   -2.9040315 
   57200     8000     300.9307   -2.9038132    291.19623    360571.71   -19499.081   -2.9036374 
   57400     8000    302.19535   -2.9038049    291.42266    358632.77   -19855.936   -2.9039626 
   57600     8000    301.23602   -2.9034971     291.6491    355643.22   -19187.085   -2.9032826 
   57800     8000     302.7054   -2.9035167    291.87554    354140.08   -18908.693   -2.9034445 
   58000     8000    298.42007   -2.9027914    292.10197    354799.35   -19579.498   -2.9030236 
   58200     8000    297.73377   -2.9025023    292.32841     350070.4   -21503.621    -2.902666 
   58400     8000    299.15774   -2.9024379    292.55484    349891.15   -22453.947    -2.901974 
   58600     8000    295.15413     -2.90164    292.78128    348165.68    -22956.77   -2.9012099 
   58800     8000    293.60581   -2.9011312    293.00771    349790.45   -22453.187    -2.901178 
   59000     8000     295.5047   -2.9010595    293.23415    351514.63   -21876.759   -2.9008766 
   59200     8000    300.75141   -2.9014175    293.46058    349756.61   -19052.355   -2.9017833 
   59400     8000    298.64975    -2.900886    293.68702    348638.41   -18894.439   -2.9016322 
   59600     8000    299.41772   -2.9007244    293.91346    347955.35   -19994.624   -2.9005666 
   59800     8000     300.8917   -2.9006303    294.13989    349290.09   -21251.662   -2.9009561 
   60000     8000    297.15182   -2.8998289    294.36633     346492.2   -20709.399   -2.9001878 
   60200     8000    302.82798   -2.9002543    294.59276    349459.87   -20897.985   -2.9001065 
   60400     8000    303.79738   -2.9000711     294.8192    347025.26   -20664.864   -2.8999052 
   60600     8000    300.77784   -2.8993843    295.04563    347291.79   -22360.705   -2.8996482 
   60800     8000    301.08944    -2.899097    295.27207    347558.33   -22151.979   -2.8990974 
   61000     8000    299.16972   -2.8985207    295.49851    347824.86    -22390.31   -2.8987131 
   61200     8000    299.92298   -2.8982809    295.72494    348091.39   -23582.689   -2.8986132 
   61400     8000    299.24012   -2.8978292    295.95138    350497.05   -22286.606   -2.8981886 
   61600     8000    298.68696   -2.8974144    296.17781    350486.11   -21185.827   -2.8973035 
   61800     8000     303.5285   -2.8977215    296.40425    349292.95   -21063.951   -2.8976814 
   62000     8000    307.33104   -2.8979013    296.63068    349157.52   -20494.938   -2.8980652 
   62200     8000    305.48034   -2.8973761    296.85712    349424.05   -19992.007   -2.8978928 
   62400     8000    308.01771   -2.8974471    297.08356    349690.59   -19652.529   -2.8972641 
   62600     8000    305.04819   -2.8968252    297.30999    350331.29   -18522.584   -2.8965422 
   62800     8000    313.51793   -2.8977176    297.53643     351581.5   -17046.926   -2.8978262 
   63000     8000    309.53722   -2.8970561    297.76286    350615.98    -18660.75   -2.8970586 
   63200     8000    308.82772   -2.8968006     297.9893    350756.72   -18867.006   -2.8966902 
   63400     8000    309.45805   -2.8967338    298.21573    351023.25   -19717.727   -2.8968058 
   63600     8000    306.76555   -2.8962259    298.44217    351422.33   -19432.054   -2.8962757 
   63800     8000     307.5094    -2.896172     298.6686    351556.31    -21031.18   -2.8958481 
   64000     8000     305.3995   -2.8957218    298.89504    351822.85    -21481.78   -2.8959155 
   64200     8000     301.1725   -2.8949874    299.12148    352089.38   -22035.091   -2.8951899 
   64400     8000    303.18657    -2.895039    299.34791    352355.91   -23458.002    -2.895314 
   64600     8000    299.93686   -2.8943749    299.57435    352622.44   -23903.213   -2.8938652 
   64800     8000    301.25917    -2.894283    299.80078    353009.02   -23028.857   -2.8947947 
   65000     8000     299.2338   -2.8937668    300.02722    353155.51   -24246.357   -2.8938625 
   65200     8000    296.78266   -2.8931567    300.25365    353422.04   -25123.034   -2.8939333 
   65400     8000    296.56832   -2.8928052    300.48009    354768.37   -25493.669   -2.8928678 
   65600     8000    294.96345   -2.8922487    300.70653    354348.84   -25578.613   -2.8927421 
   65800     8000    297.42239    -2.892199    300.93296    354221.64   -25565.478   -2.8918162 
   66000     8000    292.87726   -2.8912305     301.1594    354488.17   -26673.476   -2.8909945 
   66200     8000    294.25397   -2.8909843    301.38583    355684.09   -27797.375   -2.8907024 
   66400     8000    290.94431   -2.8900887    301.61227    355502.81   -27519.073   -2.8900106 
   66600     8000    294.33234   -2.8900459     301.8387    356215.12   -24725.721    -2.890769 
   66800     8000    303.99012    -2.890857    302.06514    355583.59   -22257.566   -2.8913103 
   67000     8000    309.87361   -2.8912395    302.29157    355820.83   -23295.904   -2.8915864 
   67200     8000    307.81032   -2.8905942    302.51801    356087.36   -22770.687   -2.8911789 
   67400     8000    311.17687   -2.8906837    302.74445    357370.44   -21315.978   -2.8907509 
   67600     8000    310.08379   -2.8902572    302.97088    356747.75    -22927.91   -2.8902715 
   67800     8000    308.77602   -2.8897946    303.19732    356886.96   -23581.597   -2.8902615 
   68000     8000    307.98431   -2.8893998    303.42375    357566.23   -23408.393   -2.8896253 
   68200     8000    313.98076   -2.8899032    303.65019    358038.11   -24190.244    -2.890063 
   68400     8000     311.8488    -2.889367    303.87662    357686.56     -24610.2   -2.8890658 
   68600     8000    302.24029    -2.887867    304.10306    359142.84   -24511.101   -2.8882438 
   68800     8000    306.25448   -2.8881249     304.3295    358219.62   -24913.659    -2.888199 
   69000     8000    307.00933   -2.8879598    304.55593     358600.6   -26108.857   -2.8884001 
   69200     8000     305.8074   -2.8875206    304.78237    358752.69   -26330.884   -2.8874493 
   69400     8000    301.17148   -2.8866331     305.0088    359019.22   -26580.575   -2.8860893 
   69600     8000    300.71757   -2.8862693    305.23524    359285.75   -26180.086   -2.8861879 
   69800     8000    308.58292    -2.886983    305.46167    359975.46   -24707.702   -2.8876118 
   70000     8000    310.16025   -2.8869221    305.68811    360525.93   -23749.923   -2.8870805 
   70200     8000    308.21969   -2.8864378    305.91454    360085.35   -23357.234    -2.886433 
   70400     8000    309.04245   -2.8863272    306.14098    360351.88   -21219.664   -2.8867383 
   70600     8000    316.39832   -2.8871203    306.36742    360618.42   -21714.886   -2.8873021 
   70800     8000    315.41717   -2.8868469    306.59385    361616.35   -20757.626   -2.8872416 
   71000     8000    315.99578   -2.8868134    306.82029    361151.48   -21876.093   -2.8872129 
   71200     8000     310.4212   -2.8859714    307.04672    361418.01   -22813.059   -2.8861218 
   71400     8000    312.14302   -2.8860583    307.27316    361684.55   -21937.089   -2.8859408 
   71600     8000    312.02025   -2.8859255    307.49959    361951.08    -22016.71    -2.885726 
   71800     8000    309.73902   -2.8855115    307.72603    362217.61   -23882.336   -2.8854444 
   72000     8000    308.48165   -2.8851843    307.95247    362484.14   -25241.676   -2.8855046 
   72200     8000    306.74945   -2.8847619     308.1789    362750.68   -24388.276   -2.8852829 
   72400     8000    303.67228   -2.8841697    308.40534    363017.21   -24348.175   -2.8841507 
   72600     8000    304.81545   -2.8841118    308.63177    363283.74   -25829.391   -2.8842857 
   72800     8000     303.1435   -2.8836531    308.85821    363550.27   -26779.737   -2.8831172 
   73000     8000    299.45245   -2.8828951    309.08464    363816.81   -26717.948   -2.8831718 
   73200     8000    297.84048   -2.8823852    309.31108    364083.34   -26482.684   -2.8828161 
   73400     8000    304.56182   -2.8829427    309.53752    364349.87   -24664.652   -2.8836296 
   73600     8000    310.51322   -2.8834431    309.76395     364616.4   -25251.014   -2.8839119 
   73800     8000    303.54277    -2.882271    309.99039    365261.91   -26277.777   -2.8827076 
   74000     8000    305.52123   -2.8822264    310.21682    365149.47   -26315.913   -2.8821543 
   74200     8000     308.1311     -2.88227    310.44326       365416   -24673.157   -2.8828196 
   74400     8000    307.50051   -2.8819322    310.66969    365682.53   -23478.972   -2.8825727 
   74600     8000     309.2975   -2.8819406    310.89613    365949.07   -24533.184   -2.8822327 
   74800     8000    307.39967   -2.8814624    311.12256    366748.43   -24915.556   -2.8808023 
   75000     8000    304.41198   -2.8808297      311.349    366482.13   -26344.787   -2.8812442 
   75200     8000    305.21732   -2.8806581    311.57544    366748.66   -26763.285   -2.8812481 
   75400     8000    303.26673   -2.8801114    311.80187     367015.2   -27231.773   -2.8809967 
   75600     8000    304.66364   -2.8799849    312.02831    367281.73   -27736.817   -2.8801014 
   75800     8000    300.71204   -2.8791505    312.25474    367548.26   -28675.912   -2.8793527 
   76000     8000    301.38738   -2.8788828    312.48118    367814.79   -28481.044    -2.879219 
   76200     8000    298.13605   -2.8781051    312.70761    368081.33   -28706.976   -2.8780914 
   76400     8000    295.77025   -2.8774178    312.93405    368347.86    -29711.55   -2.8778218 
   76600     8000    296.90737    -2.877146    313.16049    368614.39   -30450.412   -2.8773781 
   76800     8000    295.05706   -2.8764574    313.38692    368880.92   -29077.784   -2.8767981 
   77000     8000    306.21762   -2.8774678    313.61336    369147.46   -28248.573    -2.877072 
   77200     8000    306.82957    -2.877141    313.83979    369413.99   -27309.068   -2.8770913 
   77400     8000    317.60496   -2.8781631    314.06623    369680.52    -25523.17    -2.878226 
   77600     8000    313.23353   -2.8773002    314.29266    369947.05   -26192.149    -2.877525 
   77800     8000     311.7274    -2.876819     314.5191    370213.59   -27264.074   -2.8768655 
   78000     8000    312.22361   -2.8765905    314.74553    370480.12   -27181.778   -2.8764093 
   78200     8000    306.43801   -2.8755623    314.97197    370746.65   -27084.349   -2.8755469 
   78400     8000    308.79005   -2.8755844    315.19841    371013.18   -26547.466   -2.8756861 
   78600     8000    314.16067    -2.876019    315.42484    371279.72   -26567.948   -2.8763515 
   78800     8000     311.5047   -2.8754294    315.65128    371546.25   -27021.128   -2.8760242 
   79000     8000    315.82778   -2.8757486    315.87771    371812.78   -26975.538   -2.8756904 
   79200     8000    314.26574   -2.8753222    316.10415    372079.31    -27529.46    -2.875059 
   79400     8000     310.5318   -2.8746018    316.33058    372345.84   -28445.096   -2.8746367 
   79600     8000    308.78329   -2.8741159    316.55702    372612.38   -27680.791   -2.8741743 
   79800     8000    312.84654   -2.8743949    316.78346    372878.91   -25805.689   -2.8747731 
   80000     8000    317.63825   -2.8748253    317.00989    373145.44   -25845.814   -2.8745747 
   80200     8000    312.61528   -2.8739987    317.23633    373411.97   -27216.436   -2.8739346 
   80400     8000    309.42464   -2.8733702    317.46276    373741.97   -26787.205   -2.8737096 
   80600     8000    306.87089   -2.8728173     317.6892    373945.04   -27982.071   -2.8727495 
   80800     8000    306.29853   -2.8724845    317.91563    374211.57   -28777.901   -2.8726009 
   81000     8000    310.18608   -2.8727044    318.14207     374478.1   -28524.562   -2.8729996 
   81200     8000    308.92538   -2.8722687     318.3685    374744.64   -28637.169   -2.8718722 
   81400     8000    305.76236   -2.8715752    318.59494    375011.17    -30449.56   -2.8715589 
   81600     8000    300.48327   -2.8705524    318.82138     375277.7   -31241.944     -2.87036 
   81800     8000    298.84131   -2.8699652    319.04781    375544.23   -30655.502   -2.8696896 
   82000     8000    305.15177   -2.8704028    319.27425    375810.77   -28947.547   -2.8708392 
   82200     8000    310.53557   -2.8707644    319.50068     376077.3   -28974.816   -2.8702706 
   82400     8000    307.51178   -2.8700417    319.72712    376343.83   -29097.131   -2.8699692 
   82600     8000     303.7493   -2.8692175    319.95355    376610.36    -28637.35   -2.8701145 
   82800     8000    310.35201   -2.8697414    320.17999     376876.9    -28012.95   -2.8703993 
   83000     8000    320.39964   -2.8707491    320.40643    377143.43   -27638.302   -2.8709951 
   83200     8000    322.72225   -2.8708008    320.63286    377409.96   -27753.965   -2.8708163 
   83400     8000    312.12152   -2.8692052     320.8593    377676.49   -28782.963   -2.8691811 
   83600     8000    309.75383   -2.8686469    321.08573    377943.03   -29175.433   -2.8690994 
   83800     8000    307.10828   -2.8680339    321.31217    378209.56   -30032.803   -2.8682445 
   84000     8000    310.37509   -2.8681582     321.5386    378476.09   -30503.015   -2.8679452 
   84200     8000    310.00964   -2.8678015    321.76504    378742.62   -30633.874   -2.8678105 
   84400     8000    302.60533   -2.8665243    321.99148    379009.16   -31335.583   -2.8657252 
   84600     8000     302.6006   -2.8661677    322.21791    379275.69   -31310.355    -2.866482 
   84800     8000    300.65584   -2.8655418    322.44435    379542.22   -32287.706   -2.8658687 
   85000     8000    305.09157   -2.8657086    322.67078    379808.75   -32447.736   -2.8655096 
   85200     8000    305.94773   -2.8654066    322.89722    380075.29   -33200.165   -2.8651702 
   85400     8000    298.99474   -2.8640759    323.12365    380341.82   -33744.582   -2.8638954 
   85600     8000    292.88205   -2.8628175    323.35009    380608.35   -34201.572   -2.8626221 
   85800     8000    292.93976   -2.8623176    323.57652    380874.88   -33474.156   -2.8629436 
   86000     8000    310.40129   -2.8640709    323.80296    381141.42   -31926.404   -2.8641098 
   86200     8000     305.9019   -2.8630316     324.0294    381407.95   -32339.205   -2.8629415 
   86400     8000    307.95112   -2.8628377    324.25583    381674.48   -32694.011   -2.8625238 
   86600     8000    307.77352   -2.8623551    324.48227    381941.01   -33376.778    -2.862513 
   86800     8000     306.6605   -2.8617486     324.7087    382207.55   -32581.776   -2.8616143 
   87000     8000    312.84134   -2.8621079    324.93514    382474.08   -30996.622   -2.8627653 
   87200     8000    318.83764   -2.8625062    325.16157    382740.61   -31433.577   -2.8633492 
   87400     8000    315.17392   -2.8616784    325.38801    383007.14   -32185.717   -2.8609762 
   87600     8000    309.24555   -2.8605525    325.61445    383273.68   -31841.423   -2.8618182 
   87800     8000    317.70236   -2.8613017    325.84088    383540.21   -29949.089   -2.8619927 
   88000     8000    321.34457   -2.8614964    326.06732    383806.74   -30308.422   -2.8615705 
   88200     8000     319.3175   -2.8609767    326.29375    384073.27   -30715.525   -2.8609842 
   88400     8000     314.7124   -2.8601248    326.52019    384339.81   -31878.441   -2.8607696 
   88600     8000    320.55241   -2.8606077    326.74662    384606.34   -31663.029   -2.8602037 
   88800     8000     315.3741   -2.8596755    326.97306    384872.87   -32024.586   -2.8599965 
   89000     8000    314.48754    -2.859284    327.19949     385139.4    -32626.62   -2.8597847 
   89200     8000    311.00596   -2.8585351    327.42593    385405.94   -34161.764   -2.8584377 
   89400     8000    304.34346   -2.8573272    327.65237    385672.47   -34350.923   -2.8569089 
   89600     8000    307.43121   -2.8573524     327.8788       385939   -34526.779   -2.8574267 
   89800     8000    300.82431   -2.8561019    328.10524    386205.53   -34912.079   -2.8566888 
   90000     8000    304.32372    -2.856128    328.33167    386472.07   -35555.692   -2.8562906 
   90200     8000    304.24449   -2.8556676    328.55811     386738.6   -35801.304   -2.8559535 
   90400     8000    303.43687      -2.8551    328.78454    387005.13   -35015.747   -2.8551617 
   90600     8000    318.88165   -2.8566483    329.01098    387271.66   -33468.719   -2.8564718 
   90800     8000    308.76258   -2.8549478    329.23742     387538.2    -34312.31   -2.8548323 
   91000     8000    316.16038   -2.8555035    329.46385    387804.73    -34408.03   -2.8554589 
   91200     8000    308.71163   -2.8541437    329.69029    388071.26   -34709.538   -2.8544306 
   91400     8000    310.74746   -2.8540055    329.91672    388337.79   -35090.613   -2.8537978 
   91600     8000    309.52087   -2.8534296    330.14316    388604.32   -34133.157   -2.8540462 
   91800     8000    316.34208    -2.853927    330.36959    388870.86   -32689.961   -2.8539079 
   92000     8000    325.41633   -2.8547687    330.59603    389137.39   -33465.501   -2.8541635 
   92200     8000    321.31564   -2.8539135    330.82246    389403.92   -34089.596    -2.854201 
   92400     8000    318.79422   -2.8532669     331.0489    389670.45    -34184.09   -2.8534863 
   92600     8000    312.92033   -2.8521847    331.27534    389936.99   -34618.202   -2.8522661 
   92800     8000    309.92573   -2.8514527    331.50177    390203.52   -35641.579   -2.8509539 
   93000     8000    314.04307   -2.8516042    331.72821    390470.05   -35836.943   -2.8515473 
   93200     8000    305.62764   -2.8501224    331.95464    390736.58   -36064.614   -2.8509502 
   93400     8000    305.27898   -2.8496622    332.18108    391003.12   -36904.675   -2.8498366 
   93600     8000    301.65598   -2.8487422    332.40751    391269.65   -37753.702   -2.8482231 
   93800     8000     301.8414   -2.8482789    332.63395    391536.18   -37638.672   -2.8486652 
   94000     8000    304.86349   -2.8481654    332.86039    391802.71   -37987.413   -2.8485874 
   94200     8000    301.91295   -2.8472666    333.08682    392069.25   -38647.421   -2.8470545 
   94400     8000    301.91547   -2.8467284    333.31326    392335.78   -39532.102   -2.8462897 
   94600     8000    296.64175   -2.8454738    333.53969    392602.31   -38970.476   -2.8453118 
   94800     8000    311.00474   -2.8467561    333.76613    392868.84   -36648.535    -2.846944 
   95000     8000    313.96751   -2.8466285    333.99256    393135.38   -37431.558   -2.8467333 
   95200     8000    306.77649   -2.8451922      334.219    393401.91   -37847.256    -2.844663 
   95400     8000    305.23235   -2.8444794    334.44544    393668.44   -38439.851    -2.844922 
   95600     8000    312.09627   -2.8448456    334.67187    393934.97   -38579.812   -2.8451823 
   95800     8000    306.08072   -2.8435517    334.89831    394201.51   -39165.764   -2.8437599 
   96000     8000    309.19775   -2.8434239    335.12474    394468.04   -39672.562   -2.8437557 
   96200     8000    306.32334   -2.8425165    335.35118    394734.57   -40014.123   -2.8420884 
   96400     8000    301.77032   -2.8413735    335.57761     395001.1   -40414.587    -2.841354 
   96600     8000    303.84263   -2.8410645    335.80405    395267.64   -41159.642   -2.8414833 
   96800     8000    298.01143   -2.8397062    336.03048    395534.17   -41524.209   -2.8395556 
   97000     8000    296.26819   -2.8388472    336.25692     395800.7    -41880.96   -2.8388474 
   97200     8000     299.6869   -2.8386318    336.48336    396067.23   -42397.523   -2.8384798 
   97400     8000    292.84337   -2.8370626    336.70979    396333.77   -42815.689   -2.8369306 
   97600     8000    296.71376   -2.8368459    336.93623     396600.3   -43300.906   -2.8369799 
   97800     8000    296.80579   -2.8361171    337.16266    396866.83   -43348.969   -2.8358349 
   98000     8000    291.78628     -2.83471     337.3891    397133.36   -44237.973   -2.8349975 
   98200     8000    295.08534   -2.8343377    337.61553     397399.9   -44720.293   -2.8343353 
   98400     8000     287.4648   -2.8325261    337.84197    397666.43   -44782.158   -2.8323444 
   98600     8000    293.67821   -2.8324736    338.06841    397932.96   -43109.012   -2.8335521 
   98800     8000    309.74646   -2.8337218    338.29484    398199.49   -42737.316   -2.8340977 
   99000     8000    308.05765   -2.8327047    338.52128    398466.03   -41737.209   -2.8326971 
   99200     8000    335.60167   -2.8355269    338.74771    398732.56   -40061.578   -2.8356698 
   99400     8000    331.30347   -2.8343479    338.97415    398999.09   -40245.347   -2.8346131 
   99600     8000    331.39544   -2.8338119    339.20058    399265.62    -40947.96   -2.8334549 
   99800     8000    323.09786   -2.8322284    339.42702    399532.16   -40962.326   -2.8323703 
  100000     8000    315.20146   -2.8307229    339.65345    399798.69   -41840.955   -2.8307282 
Loop time of 291.203 on 4 procs for 100000 steps with 8000 atoms

Pair  time (%) = 224.488 (77.09)
Neigh time (%) = 6.33253 (2.17461)
Comm  time (%) = 42.2322 (14.5027)
Outpt time (%) = 0.374847 (0.128724)
Other time (%) = 17.7749 (6.10397)

Nlocal:    2000 ave 2050 max 1950 min
Histogram: 1 0 0 0 0 2 0 0 0 1
Nghost:    368.25 ave 402 max 331 min
Histogram: 1 0 0 0 1 0 1 0 0 1
Neighs:    97034.5 ave 100250 max 93826 min
Histogram: 1 0 0 0 1 1 0 0 0 1

Total # of neighbors = 388138
Ave neighs/atom = 48.5172
Neighbor list builds = 1597
Dangerous builds = 0

