LAMMPS (29 Jan 2012)
# Deformation and stress-strain curve for Au nanowire
# Basic settings
units metal
atom_style atomic
boundary m m p
# Geometry
lattice fcc 4.08 origin 0 0 0 orient z 1 1 0 orient x 0 0 -1 orient y -1 1 0
Lattice spacing in x,y,z = 4.08 5.76999 5.76999
region box block 0 10 0 5 0 40 units lattice side in
create_box 1 box
Created orthogonal box = (0 0 0) to (40.8 28.85 230.8)
  1 by 1 by 4 MPI processor grid
create_atoms 1 box
Created 16310 atoms
region 1  prism 5.1 10.0 0 5 -1 1000 10 0 0
region 2  prism -1.0 4.9 0 5 -1 1000 -10 0 0
region 3  prism 14.9 20.0 0 5 -1 1000 -10 0 0
region 4  prism -20 -4.5 0 5 -1 1000 10 0 0
group del1 region 1
1600 atoms in group del1
group del2 region 2
2000 atoms in group del2
group del3 region 3
2155 atoms in group del3
group del4 region 4
2586 atoms in group del4
##### Trim corners
delete_atoms group del1
Deleted 1600 atoms, new total = 14710
delete_atoms group del2
Deleted 2000 atoms, new total = 12710
delete_atoms group del3
Deleted 2155 atoms, new total = 10555
delete_atoms group del4
Deleted 2555 atoms, new total = 8000
# Specify inter-atomic potential
#pair_style eam
#pair_coeff * * Au_u3.eam
mass 1 196.966
#pair_style		lj/cut 10.2
#pair_coeff		* * 0.00169 2.934
pair_style		lj/cut 2.5
pair_coeff		1 1 1.0 1.0 
#pair_modify          shift yes

neighbor 1.5 bin
neigh_modify every 1 delay 1
# Thermal equilibrium at 300K
velocity all create 300 20199349 dist gaussian
velocity all zero linear
velocity all zero angular
thermo 200
thermo_style custom step atoms temp pe lx ly lz pzz press
thermo_modify lost warn norm yes flush yes
timestep 0.005 #ps
#dump 1 all cfg 20000 initialpos.*.cfg id type xs ys zs # Visualize with AtomEye
fix 1 all npt temp 300.0 300.0 10.0 z 0.0 0.0 10.0 drag 2.0
run 40000
Memory usage per processor = 2.12222 Mbytes
Step Atoms Temp PotEng Lx Ly Lz Pzz Press 
       0     8000    299.97374            0         40.8    28.850057    230.79965    1214.3275    1219.4407 
     200     8000    3084.9149  -0.39298955    41.725296    31.984554    232.11123    3733.6873    3986.2131 
     400     8000    4432.6415  -0.59734403    53.571089     46.11888    236.75665    2948.1437    3285.2788 
     600     8000     4776.395  -0.67723693    72.035705      64.6049    242.07512    1119.7673    1619.3153 
     800     8000    4724.7924  -0.71377785    92.560287    83.139221    247.34002    728.58774    939.98201 
    1000     8000    4666.1048  -0.75061495    121.78634    104.96234    252.38386    608.94899    750.54334 
    1200     8000    4445.0312  -0.76253958    157.20398    125.19563    257.40278    318.36881     443.4679 
    1400     8000    4258.0809  -0.77793931    191.58123    148.23467    262.30989    175.46938    287.21407 
    1600     8000    4100.1863  -0.80074307    224.62416    171.65336    267.03369    156.71372    224.31196 
    1800     8000    3854.9691  -0.80640487    256.10393    197.30479    271.70171    100.08069    153.32541 
    2000     8000    3731.3792  -0.82677687     286.4349     223.5766     276.2308    52.185241    97.575111 
    2200     8000    3551.1638  -0.83478962     315.2637    248.54726    280.69778    31.109943     71.85347 
    2400     8000    3346.1734  -0.83839402    343.39056    272.90994    285.03901    43.819804    67.932333 
    2600     8000    3175.0625  -0.84436478    370.19097    296.12367    289.27638    36.760442    52.303198 
    2800     8000     3075.917   -0.8590464    395.51332    318.05715    293.35972    32.623027    53.299895 
    3000     8000    2930.9815  -0.86510954    420.94088    340.08177    297.30554    14.632608    31.507876 
    3200     8000    2825.0639  -0.87377981    444.65337    360.62083    301.15529    16.729628      24.8961 
    3400     8000    2761.5696  -0.88745133    468.16088    380.98236    304.91879    11.519148    26.552039 
    3600     8000    2630.7114  -0.88941148    490.67736    400.48548    308.57915     6.003099    17.866068 
    3800     8000    2585.8141  -0.90369102    512.48351    419.37334    312.13245    6.1575196    14.316694 
    4000     8000    2423.0976  -0.90029744    533.41012    437.49936    315.60293    8.5377047    14.462671 
    4200     8000    2363.0763  -0.91057148     554.2202    455.52444    318.98336    9.9700872    18.907629 
    4400     8000    2325.7903  -0.92220103    573.62876    472.33557    322.24294    3.2955082    7.9862802 
    4600     8000     2237.062  -0.92584475    593.16303    489.25559    325.40781    3.2421736    9.0783602 
    4800     8000    2148.8681  -0.92926237    611.58856    505.21525     328.5196    6.0571108     10.77635 
    5000     8000    2101.2874  -0.93704405    630.24145    521.37184    331.54717    3.6284502    8.3314323 
    5200     8000    2045.1116  -0.94319903    647.59447    536.40252    334.48745     2.995425    8.9841488 
    5400     8000    1967.1153  -0.94490352     665.1875     551.6411    337.33013    2.1955786    6.5378904 
    5600     8000    1949.5452  -0.95489241    681.98747    566.19274    340.10285    3.3060848    6.8074176 
    5800     8000     1925.761  -0.96397265    698.28372    580.30808    342.79862    5.9733098    8.5569138 
    6000     8000    1862.9875  -0.96619735    714.41756    594.28274    345.41231   0.94070156    4.3704698 
    6200     8000    1809.8558  -0.97072423    730.54331     608.2504    347.96016    1.0636924    2.2726295 
    6400     8000    1795.7122  -0.97958074    745.44201    621.15522    350.43774     4.546987    4.7503792 
    6600     8000     1766.222  -0.98552068    760.58899    634.27509    352.84221    1.6884633    3.6779712 
    6800     8000    1742.7739  -0.99223553     775.0917    646.83692    355.17575    1.1339408    4.7032401 
    7000     8000    1680.3502  -0.99392006    789.54707    659.35774     357.4681    1.6166995    3.8247206 
    7200     8000    1660.3275   -1.0000243    803.12346    671.11721    359.70976   -1.3962064    2.1617215 
    7400     8000    1620.1487    -1.002638    816.94674    683.09054    361.88537   0.31556405    1.6873623 
    7600     8000    1595.0261   -1.0078786    830.46526    694.79989    364.01039  -0.22541348    1.6858167 
    7800     8000    1551.3223   -1.0097779    843.43236    706.03161    366.08086   0.56522236    0.7395383 
    8000     8000    1522.9126   -1.0137269     856.0008    716.91803    368.06009  -0.19683126   0.12850914 
    8200     8000    1515.4948   -1.0202809    868.62105    727.84933    369.99124 -0.027947405   0.31865801 
    8400     8000    1456.3778   -1.0197439    880.61649    738.23942    371.84709   0.71583286    2.0536264 
    8600     8000    1450.7318   -1.0258493    892.90905    748.88689    373.65869   0.85709561   0.95655524 
    8800     8000    1394.8605   -1.0250826    904.25284    758.71254    375.39802  -0.75243939   0.37121538 
    9000     8000    1399.0573   -1.0322753    915.83831    768.74755    377.07948    0.4855147     1.774373 
    9200     8000    1378.9958   -1.0358842    926.97475    778.39361    378.70029  -0.66382609   0.23075722 
    9400     8000    1370.8397   -1.0412685    938.06685    788.00126    380.26247   -1.1647123   0.21713035 
    9600     8000    1334.1869   -1.0430026    949.38107    798.03489    381.75889   0.78000704    2.4673242 
    9800     8000    1294.0956   -1.0433463    960.05338     807.8055    383.20264   -2.7403959   -1.0590938 
   10000     8000    1319.7895   -1.0525094     970.6332    817.49144    384.60643   0.88281195    1.2033201 
   10200     8000    1269.8768   -1.0508315    980.61195    826.62708    385.97321   0.40826329    1.3730887 
   10400     8000    1246.6582   -1.0527416    990.66762    835.83315    387.28339    1.5589228   0.85377199 
   10600     8000    1249.3807   -1.0582822    1000.7425    845.05682    388.54564   0.70438856    1.0986355 
   10800     8000    1232.2377   -1.0617115    1010.5903    854.07254    389.76108   -1.3431153   0.40038199 
   11000     8000    1217.7526    -1.065113    1020.1235    862.80036    390.92815   -1.3140559  -0.50100403 
   11200     8000    1212.5077   -1.0691253    1029.2141    871.12285    392.04319    1.8647084    2.2617368 
   11400     8000     1172.728   -1.0686045    1038.7069    879.81362    393.11102 -0.022239378   0.82586799 
   11600     8000    1157.0364   -1.0710645     1047.811    888.14855    394.15646   0.71576081    1.1296774 
   11800     8000    1167.6019    -1.076678    1056.7643    896.34537    395.16268  -0.95298028  -0.20681629 
   12000     8000     1127.229   -1.0756782    1065.4834    904.32778    396.13435   0.83201106    0.7564275 
   12200     8000    1115.2328   -1.0783223    1074.4489    912.53574    397.06889  -0.40246799  -0.54415569 
   12400     8000    1119.8249   -1.0832674    1082.5887    919.98788    397.96401   0.17570123  -0.16865437 
   12600     8000    1115.4099   -1.0869603    1091.2705    927.93613    398.81817    0.8454568   0.40978562 
   12800     8000    1099.0684   -1.0888761      1099.69    935.37937    399.63815  -0.25768513    0.1018155 
   13000     8000    1069.8925   -1.0890755    1108.1208     942.6707    400.43958  -0.72054605  -0.21991574 
   13200     8000    1078.8633   -1.0941551    1116.4656    949.88766     401.2124 -0.072986254   0.22733248 
   13400     8000     1056.452   -1.0951253    1125.0153    957.28188    401.94137   0.47307071   0.41056029 
   13600     8000     1062.801   -1.0994776    1133.0653    964.24385     402.6519   0.11068329   0.47647261 
   13800     8000    1037.6224   -1.0997978    1141.3178    971.38105    403.31455   0.94519748   0.88648171 
   14000     8000    1024.6015   -1.1015659    1149.2475    978.23903    403.96316  -0.66653395  0.077220679 
   14200     8000     995.2498   -1.1013576    1156.9834    984.92934    404.57188   0.22468389   0.46967994 
   14400     8000    1011.3864   -1.1062645    1165.0307    991.88904    405.15514   0.29814599  0.091459863 
   14600     8000    998.24679   -1.1080143    1172.4652    998.31876    405.75838    0.1804462   0.33698412 
   14800     8000    968.53671    -1.107557    1180.2437     1005.046    406.35254   0.11709874   0.17118578 
   15000     8000    963.60122   -1.1099569    1187.5773    1011.3884    406.93707  0.016090301   0.65260568 
   15200     8000    978.34595   -1.1156215    1194.8093     1017.643    407.49261  -0.55049924   0.10449539 
   15400     8000    946.80519   -1.1150629     1201.942    1023.8117     408.0223  -0.47387557   0.47295049 
   15600     8000    944.64994   -1.1176817    1209.2952    1030.1711    408.51882  0.080526894   0.65278468 
   15800     8000    929.21235   -1.1186266    1216.2319    1036.1702    408.98655    0.7138509   0.67651378 
   16000     8000    922.92438   -1.1208019     1223.076    1042.0894     409.4299  -0.29045605  0.086794015 
   16200     8000    910.61016   -1.1223166    1230.0331    1048.1062    409.83363   0.20116698     0.284883 
   16400     8000    897.69111    -1.123988    1236.7624     1053.926    410.20634   0.74545929    1.1005217 
   16600     8000    914.27527   -1.1293199    1243.4033    1059.6693    410.54903  -0.58384501  -0.20356888 
   16800     8000    887.64789   -1.1284467    1249.9574    1065.3376    410.84856  -0.44091046   0.37392606 
   17000     8000    881.32834   -1.1303903    1256.4267    1070.9326    411.13064 -0.0094648092   0.55471984 
   17200     8000    875.84649   -1.1324249     1262.813    1076.4558    411.38428   0.29732246 -0.004375233 
   17400     8000    868.44972   -1.1341606    1269.1179    1081.9085    411.60999  -0.34099903 -0.084168051 
   17600     8000    859.60191   -1.1356913    1275.3429    1087.2922    411.82257  -0.48878419  -0.22088773 
   17800     8000     868.9886   -1.1394788    1281.1845    1092.3443    411.99849 -0.091688701   -0.1793832 
   18000     8000    830.70231   -1.1368657    1287.5305    1097.8327    412.17823  0.016767806 -0.067399621 
   18200     8000    846.43409   -1.1417157    1293.4675    1102.9672    412.35005  -0.45882521   -0.1517626 
   18400     8000    827.34539   -1.1414581    1299.3331    1108.0401    412.50048   0.45693801   0.18110221 
   18600     8000    815.13805   -1.1423421     1305.129    1113.0526    412.62671   0.62327244   0.54147464 
   18800     8000    813.36148   -1.1446519    1310.8565    1118.0061     412.7305  0.063718343  -0.17669577 
   19000     8000    817.03537     -1.14741    1316.8295    1123.1718    412.82374   0.21854647  0.045490715 
   19200     8000    798.11126   -1.1471607    1322.4206    1128.0072    412.89648   0.19405343   0.44009675 
   19400     8000    803.94799   -1.1503371     1327.781    1132.6431    412.94695 -0.010118322   0.32615535 
   19600     8000    799.78231   -1.1520133    1333.4112    1137.5124    412.96133   0.23944111 -0.046272644 
   19800     8000    785.31873   -1.1523048    1338.9756    1142.3248    412.96161   0.83376732   0.29237612 
   20000     8000    777.82557    -1.153478    1344.1537    1146.8031    412.93593   0.51349337   0.25263335 
   20200     8000    762.56477   -1.1536702    1349.5941    1151.5081     412.8986  -0.55638733  -0.41537102 
   20400     8000    760.22062   -1.1554192    1354.9725    1156.1596     412.8477 -0.043578033 -0.049104308 
   20600     8000    764.61791   -1.1583445    1359.9789    1160.4894    412.77582 -0.037619193   0.31502639 
   20800     8000    747.54603   -1.1577191    1365.0865    1164.9067    412.68499   0.05720541  -0.22374734 
   21000     8000    767.78711   -1.1624096    1370.3927    1169.4958    412.57257  0.096984623   0.39169335 
   21200     8000    756.02838   -1.1627249    1375.2629    1173.7077    412.43029  0.019400035   0.32550117 
   21400     8000    738.97153   -1.1628732    1380.4551    1178.1982    412.28064    0.8312454   0.18239236 
   21600     8000    730.39849   -1.1636104    1385.4671    1182.5328    412.12131      0.36287   0.27311651 
   21800     8000    715.82268   -1.1637306    1390.2312     1186.653    411.95365   0.54193717   0.40824746 
   22000     8000    722.21244   -1.1664064    1394.9469    1190.7314    411.78051  -0.41508465  -0.50553819 
   22200     8000    724.51635   -1.1682801    1399.9249    1195.0366    411.59389   0.21642361   0.24370669 
   22400     8000    690.75383   -1.1656898    1404.5201    1199.0107    411.39589   0.44201837   0.16756664 
   22600     8000    701.69802   -1.1689553    1409.2567    1203.1071    411.17412   -0.1856923 -0.024879661 
   22800     8000    694.91912   -1.1697371    1413.7603    1207.3604    410.95245  -0.11304275  0.032884133 
   23000     8000    691.10402   -1.1711571    1418.5634     1212.126    410.71413  -0.39521076  -0.16424074 
   23200     8000    690.36393   -1.1728969    1423.0224    1216.5503    410.47172   0.24122855   0.14815912 
   23400     8000      688.193   -1.1741128    1427.4383    1220.9319    410.22745  -0.24260096    0.1154864 
   23600     8000    685.64225   -1.1755802    1431.9007    1225.3594    409.96845   0.15052167  0.065170097 
   23800     8000    659.08242   -1.1736454    1436.5395    1229.9621    409.69574     0.137313   0.04122951 
   24000     8000    654.86683   -1.1747941    1440.9357    1234.3241    409.41653  -0.33158719  0.068316368 
   24200     8000    654.32686   -1.1763822    1445.2038    1238.5589    409.12252 -0.025681118  -0.13917722 
   24400     8000     670.5233   -1.1802034     1449.368    1242.6907    408.83614   -0.1504213  -0.35297474 
   24600     8000    666.26878   -1.1813415    1453.7908     1247.079    408.54368  -0.25663234 -0.015434928 
   24800     8000    642.48009   -1.1795424    1457.8145    1251.0714    408.23785   0.54522795   0.36976727 
   25000     8000    635.32766   -1.1801147    1462.0729    1255.2967    407.92696 -0.087010649   0.10321571 
   25200     8000    640.28475   -1.1823212    1466.1064    1259.2987    407.61414   -0.3632741  -0.11244706 
   25400     8000    631.91046   -1.1828349    1470.3491    1263.5084    407.29247  -0.13570383 -0.030461666 
   25600     8000    632.08865   -1.1843165    1474.4916    1267.6186    406.96075  -0.65563577  -0.21497786 
   25800     8000      640.605   -1.1867863     1478.416    1271.5124    406.62717  0.028315078    0.2336967 
   26000     8000    630.12307   -1.1866635     1482.207    1275.2739    406.29533   0.12627872  0.018766467 
   26200     8000    631.48318   -1.1884935    1486.1633    1279.1993    405.95453  0.019962379 -0.054443611 
   26400     8000    636.71853   -1.1903877    1490.1629    1283.1678    405.61576   0.23308599   0.21034825 
   26600     8000    620.95586   -1.1895732    1494.0498    1287.0244    405.27327  -0.51207377  -0.26609591 
   26800     8000    610.73259   -1.1895657    1497.9416    1290.8859     404.9288   0.10632576   0.31712337 
   27000     8000    598.75979   -1.1891373    1501.8761    1294.7897    404.57231   0.53835849   0.39253615 
   27200     8000    602.75096   -1.1907855    1505.4746    1298.3602    404.21097  -0.20456612  -0.13207371 
   27400     8000    608.78688    -1.192893    1509.2878    1302.1437    403.85305  -0.31849106 -0.049978949 
   27600     8000    576.32193   -1.1898912    1513.0875    1305.9138    403.49245   0.31838779   0.12448025 
   27800     8000    586.91532   -1.1925545    1516.7816    1309.5791    403.12914  -0.18598783  0.083359881 
   28000     8000    586.65557   -1.1937816    1520.3361    1313.1059    402.76417 -0.020546254  -0.12230018 
   28200     8000    582.11882   -1.1942838    1524.0437    1316.7846    402.39347 -0.057129321 -0.0047429004 
   28400     8000    582.86221   -1.1956442     1527.613    1320.3261    402.02329  -0.11358095    0.2063335 
   28600     8000     580.7153    -1.196577    1531.2608    1323.9456    401.64928  -0.15593997 0.0016034233 
   28800     8000    576.55265   -1.1973012    1534.8791    1327.5357    401.27622  -0.46888194  -0.18867948 
   29000     8000    574.22226    -1.197843    1538.2229    1330.8534    400.90199  -0.34138032  -0.22074331 
   29200     8000    570.69237   -1.1985049    1541.9248    1334.5264    400.52469  0.086021416 -0.035392693 
   29400     8000    551.90233   -1.1970542    1545.0959    1337.6729    400.14373 -0.070709035  0.073549456 
   29600     8000    572.59711   -1.2008766     1548.759    1341.3074    399.76181   0.21556449   0.14645831 
   29800     8000    556.14773    -1.199532    1551.9845    1344.5078    399.37659   0.30317915   0.31065852 
   30000     8000    559.78254   -1.2011438    1555.4908    1347.9868    398.98979  -0.12418478  -0.10973772 
   30200     8000    543.47052   -1.2000441    1558.9869    1351.4556    398.60248   0.20599407   0.27847618 
   30400     8000    541.79033   -1.2008626    1562.0903    1354.5349    398.21333  -0.28142984  -0.31262508 
   30600     8000    542.90866   -1.2020982    1565.4699    1357.8881    397.83035   0.05693046  0.035889226 
   30800     8000    537.30649   -1.2023613    1568.7425    1361.1353    397.44826   -0.2878555  -0.10845662 
   31000     8000     546.4772   -1.2043879    1572.1219    1364.4883     397.0606  -0.45584676  -0.29392219 
   31200     8000    535.12487   -1.2037616     1575.137      1367.48    396.67493  0.096347511   0.11216667 
   31400     8000    541.63419   -1.2055751    1578.4692    1370.7862    396.28439    0.2279748   0.16748932 
   31600     8000    537.84175    -1.205764     1581.777    1374.0682    395.89112   0.39197179   0.21485896 
   31800     8000    516.20042   -1.2041521    1584.8237    1377.0911    395.49554   0.25404524   0.26409815 
   32000     8000    527.77337   -1.2065801    1587.9756    1380.2185    395.10222  0.023217568 0.0067843988 
   32200     8000    518.33672   -1.2062221    1591.1058    1383.3243    394.71304  -0.39468843  -0.40831142 
   32400     8000    529.52879   -1.2085231    1594.3849    1386.5779    394.32293  -0.20401351  -0.23108579 
   32600     8000    525.12782   -1.2088003    1597.2714    1389.4419    393.93002  -0.28620558  0.047766977 
   32800     8000    520.55416   -1.2089588    1600.5524    1392.6973    393.53425   0.22247797  0.044529124 
   33000     8000     504.4832   -1.2078316    1603.5519    1395.6734    393.14782   0.37960057   0.24112511 
   33200     8000    508.77106   -1.2091669    1606.4413    1398.5403    392.76782   0.30445923  0.017812814 
   33400     8000    515.59241   -1.2108542    1609.4324    1401.5081    392.38423  -0.29544858  -0.01241253 
   33600     8000    502.31499   -1.2098312    1612.5379    1404.5895    392.00125  -0.41422705  -0.04882917 
   33800     8000    491.11702   -1.2092016    1615.5782    1407.6061    391.61328  -0.59053819  -0.44619882 
   34000     8000     512.1212   -1.2128196    1618.3635    1410.3697    391.22011    0.3158331   0.22562692 
   34200     8000    487.23598   -1.2102477    1621.4386    1413.4209    390.83033  0.037067844 -0.024884614 
   34400     8000    503.41928   -1.2133123    1624.1743    1416.1352    390.43372   0.30719363   0.20209384 
   34600     8000    496.05719   -1.2129848    1627.1823    1419.1198    390.04236  -0.07821822  -0.10795806 
   34800     8000    490.82025   -1.2129931    1629.9416    1421.8576    389.64484  0.015073517 3.0650388e-05 
   35000     8000    480.03386   -1.2122773    1632.9408    1424.8334     389.2569 -0.085218776  0.047380899 
   35200     8000     474.8585   -1.2123765    1635.5954    1427.4673    388.86809   0.28474719   0.29108805 
   35400     8000    485.10588   -1.2144746    1638.4319    1430.2817     388.4783 0.0057849716 -0.080756931 
   35600     8000    481.09985   -1.2144717    1641.2511     1433.079    388.09019 -0.032201162 -0.096123354 
   35800     8000    478.57857   -1.2149196    1644.1229    1435.9284     387.7182  -0.12926688  -0.18758604 
   36000     8000     472.0307   -1.2147009    1647.0046    1438.7877    387.35816 -0.056376999  -0.12034523 
   36200     8000    469.58942   -1.2151692    1649.6491    1441.4115    387.01116  -0.13061547  -0.13433634 
   36400     8000    480.48789   -1.2171072    1652.4698    1444.2103    386.66619    0.3807123   0.37923533 
   36600     8000    479.27289   -1.2174621    1655.0836    1446.8037    386.31721   0.10032356  -0.02527105 
   36800     8000    464.94286   -1.2161625    1657.7098    1449.4095     385.9721   0.26993088   0.26271035 
   37000     8000    466.19454    -1.217075    1660.5898     1452.267    385.62531    0.1969861   0.19473479 
   37200     8000    475.06806   -1.2189528     1663.092    1454.7498    385.27724   0.10166805 0.0051094428 
   37400     8000    473.98102   -1.2193408    1665.7934      1457.43    384.93211  -0.13663587  -0.12896335 
   37600     8000    466.08569   -1.2189462    1668.4001    1460.0165    384.58305  -0.29103209 -0.012687487 
   37800     8000    470.89941   -1.2203018    1671.0713    1462.6668     384.2371  -0.39856213  -0.12743706 
   38000     8000    463.40651   -1.2199786    1673.7144    1465.2894    383.89159 0.0074530782 -0.056819685 
   38200     8000     463.5066   -1.2206136    1676.3039    1467.8587    383.55193  0.040656651  0.097002327 
   38400     8000    457.76239   -1.2204101    1678.8277    1470.3629    383.21433 -0.010790892 -0.099804789 
   38600     8000    445.73446   -1.2193285    1681.4154    1472.9303    382.87601  0.022801304  -0.21279596 
   38800     8000    449.61395   -1.2204372     1684.155    1475.6487    382.53339   0.17936206   0.11347806 
   39000     8000    450.90696   -1.2210756    1686.5998    1478.0744    382.18185  -0.14314952  -0.15146249 
   39200     8000    452.62212   -1.2218089    1689.2219     1482.234    381.83207    -0.150767  -0.23518205 
   39400     8000    445.54307   -1.2213198     1691.704    1486.9489    381.48507 -0.029473283  -0.10890062 
   39600     8000    448.91096   -1.2223092    1694.0985    1491.4973    381.14553 -0.095175051    0.1453497 
   39800     8000    448.88241   -1.2227914    1696.7301     1496.496    380.80677  -0.11624855 -0.040371069 
   40000     8000    436.91038   -1.2216961    1699.0754    1500.9508    380.47084 -0.052935752  0.053099123 
Loop time of 192.483 on 4 procs for 40000 steps with 8000 atoms

Pair  time (%) = 5.64157 (2.93094)
Neigh time (%) = 142.754 (74.1647)
Comm  time (%) = 22.5133 (11.6963)
Outpt time (%) = 0.0303367 (0.0157607)
Other time (%) = 21.5434 (11.1924)

Nlocal:    2000 ave 2124 max 1764 min
Histogram: 1 0 0 0 0 0 0 1 1 1
Nghost:    158.25 ave 176 max 125 min
Histogram: 1 0 0 0 0 0 0 1 1 1
Neighs:    4606.25 ave 5286 max 3380 min
Histogram: 1 0 0 0 0 0 1 0 0 2

Total # of neighbors = 18425
Ave neighs/atom = 2.30313
Neighbor list builds = 3265
Dangerous builds = 0
# Tensile loading
unfix 1
#undump 1
reset_timestep 0
compute MyTemp all temp
compute Mype all pe
compute peratom all stress/atom
# Computing time-averaged quantities - T & pe
fix ThermoAve all ave/time 1 100 200 c_MyTemp c_Mype
thermo 200
thermo_style custom step atoms f_ThermoAve[1] f_ThermoAve[2] lz vol pzz pe xlat ylat zlat
WARNING: New thermo_style command, previous thermo_modify settings will be lost (output.cpp:471)
thermo_modify lost warn norm yes flush yes
fix 1 all nvt temp 300.0 300.0 10.0
log 	1E9e_300K_LJ.txt
