LAMMPS (29 Jan 2012)
# Deformation and stress-strain curve for Au nanowire
# Basic settings
units metal
atom_style atomic
boundary m m p
# Geometry
lattice fcc 4.08 origin 0 0 0 orient z 1 1 0 orient x 0 0 -1 orient y -1 1 0
Lattice spacing in x,y,z = 4.08 5.76999 5.76999
region box block 0 10 0 5 0 40 units lattice side in
create_box 1 box
Created orthogonal box = (0 0 0) to (40.8 28.85 230.8)
  1 by 1 by 1 MPI processor grid
create_atoms 1 box
Created 16310 atoms
region 1  prism 5.1 10.0 0 5 -1 1000 10 0 0
region 2  prism -1.0 4.9 0 5 -1 1000 -10 0 0
region 3  prism 14.9 20.0 0 5 -1 1000 -10 0 0
region 4  prism -20 -4.5 0 5 -1 1000 10 0 0
group del1 region 1
1600 atoms in group del1
group del2 region 2
2000 atoms in group del2
group del3 region 3
2155 atoms in group del3
group del4 region 4
2586 atoms in group del4
##### Trim corners
delete_atoms group del1
Deleted 1600 atoms, new total = 14710
delete_atoms group del2
Deleted 2000 atoms, new total = 12710
delete_atoms group del3
Deleted 2155 atoms, new total = 10555
delete_atoms group del4
Deleted 2555 atoms, new total = 8000
# Specify inter-atomic potential
#pair_style eam
#pair_coeff * * Au_u3.eam
mass 1 196.966
pair_style		lj/cut 10.2
pair_coeff		* * 0.00169 2.934 
#pair_modify          shift yes

neighbor 1.5 bin
neigh_modify every 1 delay 1
# Thermal equilibrium at 300K
velocity all create 300 20199349 dist gaussian
velocity all zero linear
velocity all zero angular
thermo 200
thermo_style custom step atoms temp pe lx ly lz pzz press
thermo_modify lost warn norm yes flush yes
timestep 0.005 #ps
#dump 1 all cfg 20000 initialpos.*.cfg id type xs ys zs # Visualize with AtomEye
fix 1 all npt temp 300.0 300.0 10.0 z 0.0 0.0 10.0 drag 2.0
run 40000
Memory usage per processor = 7.57502 Mbytes
Step Atoms Temp PotEng Lx Ly Lz Pzz Press 
       0     8000    299.99383 -0.002057995         40.8    28.850057    230.79965    5499.4344    5290.7959 
     200     8000    253.26421 0.0012805074    42.041086    32.072856    235.38738    3981.2853    3985.2777 
     400     8000    301.09707 -0.0057269096    48.285053    39.602495    239.25326    987.58023     1275.279 
     600     8000    302.46834 -0.0059603781    54.151455    47.037389    241.55668    254.41096    602.26506 
     800     8000    295.78525 -0.0050380045    60.777134    55.496596    242.80902    59.117343    368.40972 
    1000     8000    288.82252 -0.0040724786    66.868844    63.279835    243.51736    21.076137    274.50996 
    1200     8000    283.66963 -0.0033379225     73.23348     71.30467    243.96146    12.633828    219.07979 
    1400     8000    280.25621 -0.0028183945    79.847781    79.507353    244.28671    10.037061    180.16568 
    1600     8000     277.9845 -0.0024341858    85.754753    86.549362    244.56303    9.4320624    155.11825 
    1800     8000     276.6983 -0.0021661222    92.899915     94.76806    244.82812    8.1836204    131.23627 
    2000     8000    275.96402 -0.0019613729    100.05495    102.98024    245.10075    8.2680905    112.93445 
    2200     8000    275.66542 -0.0018084023    107.22084    111.17282    245.39853    7.3274228    98.148174 
    2400     8000    275.64036 -0.001688851    114.55408    119.34622    245.72102    6.2882965    85.854582 
    2600     8000    275.60682 -0.0015684008    121.91952    127.51462    246.06162    5.8473789    76.105878 
    2800     8000    275.80099 -0.0014787476    129.31831    135.68972    246.42004    5.1999272    67.522068 
    3000     8000    276.18471 -0.0014150938    136.78393    143.87612    246.78976    4.3785222     60.06732 
    3200     8000    276.49555 -0.0013439384    144.00331    151.79211    247.16389    4.1478319    54.368497 
    3400     8000    276.86499 -0.0012822775    151.23359    159.71996    247.54713    4.0119041    49.466847 
    3600     8000    277.36955 -0.0012399044    158.47471    167.65966    247.94173    3.3732421    44.983844 
    3800     8000    277.86205 -0.0011974376    165.72653    175.90652    248.33735    3.0121149    41.032386 
    4000     8000    278.44478 -0.0011682171    172.98891    184.30087    248.72933    2.6786366    37.535251 
    4200     8000    278.93775 -0.0011291083    181.30151    194.00106    249.11752    2.5708347    34.212521 
    4400     8000    279.56122 -0.0011086852      188.586    202.50153    249.50841    2.3316522    31.565129 
    4600     8000    280.16047 -0.0010869732    195.88757    211.01375    249.90205    2.1812094    29.194212 
    4800     8000    280.72991 -0.0010633083    203.29308    219.53751    250.29886    1.9933186     27.06824 
    5000     8000    281.29698 -0.0010411741    210.70843     228.0726    250.69593    1.8103336    25.148742 
    5200     8000     281.8444 -0.0010182571    218.13345    236.61881    251.08917    1.6475023    23.459994 
    5400     8000    282.42987 -0.001002131    225.56794    245.17593    251.47857    1.5645468     21.92447 
    5600     8000    283.00464 -0.00098661221    234.07587    254.96857     251.8677    1.4691182    20.342705 
    5800     8000    283.59134 -0.00097458349    241.53003    263.54833     252.2577    1.3404479     19.10771 
    6000     8000    284.13317 -0.00095874986    248.99306     272.1383    252.64665    1.2629571    17.991926 
    6200     8000    284.73624 -0.00095278986    256.46476    280.73825     253.0346    1.1448835    16.906538 
    6400     8000    285.22198 -0.00093366881    263.94494    289.34795    253.41954    1.0782856    15.974493 
    6600     8000     285.7551 -0.00092264071    271.43338    297.96716    253.80197    1.0253266    15.091482 
    6800     8000    286.28244 -0.00091284373     278.9299    306.59567    254.18323   0.94324541    14.272807 
    7000     8000     286.7797 -0.00090112632    287.50697     316.4679    254.56171     0.881056    13.425265 
    7200     8000    287.26696 -0.00089011688    295.02011    325.11554    254.93764   0.82837935    12.746314 
    7400     8000    287.77652 -0.00088392826     302.5407    333.77176    255.31155   0.78466396    12.108341 
    7600     8000    288.26577 -0.00087717568    310.06854    342.43632    255.68475   0.75324676    11.528191 
    7800     8000    288.78161 -0.0008758873    317.60342    351.10899    256.05876   0.70045094    10.975854 
    8000     8000    289.17727 -0.00086120271    325.14515    359.78954    256.43321   0.69164122    10.488178 
    8200     8000    289.60618 -0.00085279531    332.69352    368.47773    256.80981   0.64355976    10.005186 
    8400     8000    290.01589 -0.00084378382    341.32811    378.41617    257.18583   0.59818477    9.4830783 
    8600     8000    290.38374 -0.00083119663    348.89007       387.12    257.55961   0.54211629    9.0622331 
    8800     8000    290.75643 -0.00082094655    356.45808    395.83079    257.92661   0.52084548    8.6768892 
    9000     8000    291.16298 -0.00081691033    364.03195    404.54834    258.28941   0.51014338     8.320374 
    9200     8000    291.52924 -0.00080953518    371.61153    413.27245    258.65274   0.49612639    7.9913863 
    9400     8000    291.93502 -0.00080914387    379.19661     422.0029      259.018   0.47814707     7.665746 
    9600     8000    292.31821 -0.00080778359    386.78703    430.73949    259.38592   0.45853281    7.3628311 
    9800     8000    292.65774 -0.00080270683    395.23546    440.46365    259.75626   0.44018535     7.052226 
   10000     8000    292.96918 -0.00079586895    402.56497    448.89994    260.12813   0.42012668    6.7912501 
   10200     8000    293.28754 -0.00079174449    410.94697    458.54763    260.50041   0.39998558    6.5039346 
   10400     8000    293.55089 -0.0007821558    418.28578    466.99462    260.87154   0.36777364    6.2748389 
   10600     8000    293.88754 -0.00078354043    425.62869    475.44633    261.23671   0.33961778     6.046262 
   10800     8000     294.1366 -0.00077528902    434.02543    485.11099    261.59537   0.34461724    5.8203472 
   11000     8000    294.43036 -0.00077449608    441.37664    493.57227    261.95436   0.33906832    5.6258461 
   11200     8000    294.65281 -0.00076618601     449.7825    503.24743      262.317    0.3330678    5.4163892 
   11400     8000    294.95077 -0.00076913099    457.14138    511.71752    262.68321   0.29941622    5.2248927 
   11600     8000    295.12859 -0.00075800919    464.50362    520.19147    263.04617   0.29803215     5.065481 
   11800     8000    295.36327 -0.00075570749    472.92157    529.88055    263.40852   0.28701343    4.8811069 
   12000     8000    295.58372 -0.00075292473    480.29059    538.36231    263.77109   0.27175969    4.7248809 
   12200     8000    295.78835 -0.00074946027    488.71597    548.05994    264.13254   0.26951914    4.5600164 
   12400     8000    296.01722 -0.00075050992    496.09122    556.54887    264.49559   0.26278831    4.4193724 
   12600     8000    296.21089 -0.00074834417     503.4692    565.04094    264.86071   0.24639362    4.2897716 
   12800     8000    296.40255 -0.00074715188    511.90437    574.74984    265.22455    0.2412731     4.148212 
   13000     8000    296.58486 -0.00074603387     519.2878    583.24819    265.58818   0.23103492    4.0283432 
   13200     8000    296.76329 -0.00074559847    527.72892    592.96394    265.95105   0.21870485    3.8926991 
   13400     8000    296.87917 -0.00073823673    535.11732    601.46801    266.31143   0.21251526    3.7810969 
   13600     8000    297.00583 -0.00073327007    543.56385    611.18999    266.66947   0.20369911    3.6585204 
   13800     8000    297.12696 -0.00072854822    550.95678    619.69926    267.02557    0.1933963    3.5569309 
   14000     8000    297.27959 -0.00072877628    558.35168    628.21081    267.37931   0.19238733    3.4572166 
   14200     8000    297.38964 -0.00072447607    566.80532    637.94097     267.7339   0.19134648    3.3549418 
   14400     8000    297.51161 -0.00072260572    574.20421    646.45711    268.09159   0.18176649    3.2652178 
   14600     8000    297.63555 -0.00072177625     582.6622    656.19228    268.44916   0.17470577    3.1665748 
   14800     8000    297.75058 -0.00072060228    590.06473     664.7126    268.80511    0.1702914    3.0848711 
   15000     8000    297.86525 -0.00072022192    597.46884    673.23475    269.16059   0.16390008    3.0044813 
   15200     8000    297.96752 -0.00071902833    605.93253    682.97649    269.51591   0.16379214    2.9184668 
   15400     8000    298.05694 -0.00071696636    613.33981    691.50228    269.87329   0.16217644    2.8472377 
   15600     8000    298.15403 -0.00071663532    621.80696    701.24799    270.23429   0.15297659     2.764385 
   15800     8000    298.23053 -0.00071420146    629.21712     709.7771    270.59473   0.14186052    2.6942254 
   16000     8000    298.29048 -0.00071016248    636.62854    718.30766    270.94939   0.13796374    2.6304081 
   16200     8000    298.34125 -0.00070551186     645.1002    728.05857    271.30039   0.13961415    2.5606027 
   16400     8000    298.41086 -0.00070384774    652.51415    736.59204    271.65264   0.13573359    2.4979896 
   16600     8000    298.48314 -0.00070299386    660.98858    746.34613    272.00533   0.12931556    2.4287246 
   16800     8000    298.51208 -0.00069700758    668.40485    754.88227     272.3573   0.12698708    2.3734315 
   17000     8000    298.58219 -0.00069672786    675.82214    763.41959    272.70911   0.12358516     2.317569 
   17200     8000    298.66497 -0.0006984874    684.30025    773.17792    273.05975   0.11748128    2.2575112 
   17400     8000    298.71626 -0.00069662529    691.71962    781.71762    273.40819   0.11813092    2.2103973 
   17600     8000    298.76761 -0.00069524472    700.19999    791.47856    273.75752    0.1149102    2.1553808 
   17800     8000    298.82354 -0.00069484282    707.62125    800.02045    274.10737   0.10916533     2.105829 
   18000     8000    298.86865 -0.00069340829    715.04334    808.56329    274.45555   0.10645996    2.0582515 
   18200     8000    298.91394 -0.00069232324     723.5267    818.32765    274.80192   0.10235867    2.0065877 
   18400     8000    298.93421 -0.00068831545    730.95046    826.87242    275.14619   0.10114466    1.9655014 
   18600     8000    299.01084 -0.00069188582    739.43565    836.63889    275.48974  0.095977658    1.9170181 
   18800     8000    299.04531 -0.00069032281    746.86095    845.18543    275.83102  0.096685701    1.8790804 
   19000     8000    299.11859 -0.00069418915    755.34782    854.95384    276.17289  0.096059209    1.8356757 
   19200     8000    299.14786 -0.00069276252    762.77453      863.502    276.51844  0.095052765    1.7988079 
   19400     8000    299.19759 -0.00069429123    770.20184    872.05086    276.86777  0.089370936    1.7587421 
   19600     8000    299.18184 -0.00068759852    778.69092     881.8218    277.21606  0.089245491    1.7188426 
   19800     8000    299.20461 -0.00068610611    786.11946    890.37207     277.5639  0.086639191     1.684231 
   20000     8000    299.21735 -0.00068353141    794.60988    900.14457    277.91193  0.085601784    1.6473016 
   20200     8000    299.22364 -0.00068022989    802.03956    908.69615    278.26095  0.082055105    1.6153618 
   20400     8000    299.25309 -0.00068001392    809.46976    917.24832    278.60808  0.079192442    1.5829384 
   20600     8000    299.24046 -0.00067448072    817.96203    927.02294    278.95211   0.07753052    1.5489094 
   20800     8000    299.26049 -0.00067325545    825.39329    935.57634     279.2947  0.076308991    1.5174333 
   21000     8000    299.27091 -0.00067084258    833.88674    945.35233    279.63691  0.072272737    1.4840624 
   21200     8000    299.29732 -0.00067053401    841.31903    953.90691    279.97655  0.072121109    1.4562975 
   21400     8000    299.27455 -0.00066402165    848.75178    962.46203    280.31673  0.072909659    1.4315923 
   21600     8000    299.34872 -0.0006700809    857.24693    972.23996    280.65902  0.068807339    1.3996909 
   21800     8000    299.34934 -0.00066678674    864.68066     980.7962    281.00029  0.068698038    1.3747089 
   22000     8000    299.40441 -0.00067066817    873.17689    990.57539    281.34192  0.066847223    1.3454223 
   22200     8000    299.42199 -0.00066989283    880.61155    999.13269    281.68365  0.065073678    1.3221665 
   22400     8000     299.4319 -0.0006682822    888.04661    1007.6905    282.02522  0.063996853    1.2993841 
   22600     8000    299.48611 -0.00067252868    896.54431    1017.4713    282.36582  0.060252929    1.2717639 
   22800     8000    299.48746 -0.00067010879     903.9802    1026.0301    282.70224  0.059248223     1.250127 
   23000     8000    299.47752 -0.00066638949    912.47879     1035.812    283.03643   0.06012624    1.2259575 
   23200     8000    299.48352 -0.00066486452    919.91543    1044.3716    283.37241  0.059257406    1.2041101 
   23400     8000    299.51341 -0.00066650418    927.35241    1052.9315    283.71025  0.057199459    1.1823912 
   23600     8000     299.4835 -0.00066050594    935.85222    1062.7148    284.04862  0.057670331    1.1613814 
   23800     8000    299.52026 -0.00066317118    943.28991    1071.2756    284.38862  0.054943193    1.1409453 
   24000     8000    299.54281 -0.00066405896    951.79051    1081.0598    284.72798  0.054662478    1.1188724 
   24200     8000    299.55054 -0.00066317849    959.22887    1089.6214    285.06832  0.055393455    1.1010712 
   24400     8000    299.51688 -0.00065707538    967.73022    1099.4065    285.41263  0.054360522    1.0814809 
   24600     8000    299.55253 -0.0006598637    975.16923    1107.9688    285.75863  0.049401244    1.0608832 
   24800     8000    299.51638 -0.00065335064    982.60853    1116.5315    286.09897  0.049422984    1.0438561 
   25000     8000    299.54857 -0.00065568126    991.11095    1126.3178    286.43589  0.048023573     1.024244 
   25200     8000    299.55012 -0.00065405078    998.55088    1134.8811     286.7705  0.047967876    1.0097056 
   25400     8000    299.58307 -0.00065657538     1007.054    1144.6683    287.10558  0.048263526   0.99209528 
   25600     8000    299.60027 -0.00065715573    1014.4946    1153.2324    287.44326   0.04676454   0.97571528 
   25800     8000    299.61944 -0.00065809038    1021.9354    1161.7968    287.78139  0.045391199   0.96000503 
   26000     8000    299.63662 -0.00065884673    1030.4395     1171.585    288.11836  0.044142638   0.94320559 
   26200     8000    299.65036 -0.00065927633    1037.8809    1180.1501    288.45441  0.044769063   0.92880321 
   26400     8000    299.64614 -0.0006574985    1046.3856     1189.939    288.79158  0.042868252   0.91317437 
   26600     8000    299.64202 -0.00065579315    1053.8275    1198.5047    289.12842  0.042081887   0.89893024 
   26800     8000     299.6735 -0.00065868077    1061.2696    1207.0706    289.46385  0.040200686   0.88405876 
   27000     8000    299.64576 -0.00065397887    1069.7752    1216.8605     289.7965  0.040879484   0.87023781 
   27200     8000    299.67971 -0.00065729906    1077.2178     1225.427    290.12968  0.039877093   0.85694956 
   27400     8000    299.69181 -0.00065785376    1085.7239    1235.2175    290.46334  0.039036986   0.84255124 
   27600     8000    299.70764 -0.00065895165     1093.167    1243.7845    290.79642  0.037780815   0.83015574 
   27800     8000    299.68724 -0.00065544245    1100.6102    1252.3517    291.12826  0.037887318   0.81871273 
   28000     8000     299.7016 -0.00065646512    1109.1171    1262.1431    291.46031  0.037354195   0.80478819 
   28200     8000    299.69857 -0.00065529387    1116.5608    1270.7108    291.79309  0.037105225   0.79325945 
   28400     8000    299.68931 -0.00065333922    1125.0681    1280.5027    292.12706  0.035600625   0.78044863 
   28600     8000    299.65858 -0.00064855744    1132.5122    1289.0709    292.45996   0.03470041   0.76941172 
   28800     8000    299.63914 -0.00064516243    1139.9565    1297.6393    292.79145  0.034854326   0.75778184 
   29000     8000    299.67324 -0.00064860302    1148.4645    1307.4321    293.12227  0.033466507   0.74462387 
   29200     8000    299.65845 -0.00064571899    1155.9092     1316.001    293.45183  0.033561579   0.73559349 
   29400     8000     299.6614 -0.00064511941    1164.4177    1325.7943    293.78204  0.033122305   0.72479155 
   29600     8000    299.65482 -0.00064327669    1171.8629    1334.3637    294.11298  0.032330187   0.71450679 
   29800     8000    299.68442 -0.00064605155     1180.372    1344.1576    294.44277  0.030261969   0.70207777 
   30000     8000    299.64523 -0.00063992948    1187.8176    1352.7276    294.76828  0.030192741   0.69322544 
   30200     8000    299.63025 -0.00063690743    1195.2634    1361.2977    295.09195  0.031026681   0.68412386 
   30400     8000    299.63257 -0.00063608932    1203.7732    1371.0925    295.41784  0.030265882    0.6732566 
   30600     8000    299.62374 -0.00063376196    1211.2195    1379.6632    295.74527  0.029111882   0.66396956 
   30800     8000    299.66152 -0.00063735579    1219.7298    1389.4586    296.07064  0.027588634   0.65326334 
   31000     8000    299.66975 -0.0006371749    1227.1766    1398.0299    296.39221  0.029194189   0.64545054 
   31200     8000    299.70375 -0.00064047441    1234.6236    1406.6014    296.71684  0.029927368   0.63787866 
   31400     8000    299.74612 -0.00064502418    1243.1347    1416.3977    297.04836  0.028808823   0.62833348 
   31600     8000    299.75736 -0.00064561269    1250.5821    1424.9697    297.38178  0.026761223   0.61974008 
   31800     8000    299.78021 -0.00064782233    1259.0937    1434.7665    297.71138  0.026719017   0.61036105 
   32000     8000    299.77189 -0.00064615122    1266.5415     1443.339    298.03929  0.026959987   0.60336786 
   32200     8000    299.76743 -0.00064508556    1273.9895    1451.9116    298.36834  0.026607785   0.59582442 
   32400     8000    299.78128 -0.00064639518    1282.5016    1461.7092    298.69807  0.025113761   0.58614696 
   32600     8000    299.75903 -0.00064304768      1289.95    1470.2822      299.024  0.024120548   0.57886271 
   32800     8000    299.73724 -0.00063974147    1298.4625    1480.0801    299.34579  0.024683334   0.57119949 
   33000     8000    299.76845 -0.00064325428    1305.9111    1488.6535    299.66747  0.024398274   0.56357471 
   33200     8000    299.73123 -0.00063797812    1313.3599    1497.2271    299.99029  0.025021428   0.55723166 
   33400     8000    299.75613 -0.00064068753     1321.873    1507.0257    300.31568  0.023226297   0.54875439 
   33600     8000    299.72996 -0.00063673403    1329.3221    1515.5996    300.63876  0.022884568     0.542173 
   33800     8000    299.76367 -0.00064048368    1337.8356    1525.3987    300.95872  0.022153687   0.53441178 
   34000     8000    299.74332 -0.00063727857     1345.285     1533.973    301.27657  0.022532533   0.52872592 
   34200     8000    299.78764 -0.00064241293    1352.7347    1542.5475    301.59468  0.021848485    0.5219388 
   34400     8000    299.77627 -0.00064044685    1361.2487    1552.3472    301.91266  0.022233112   0.51533384 
   34600     8000    299.78595 -0.00064125486    1368.6986    1560.9221    302.23317  0.021933647   0.50899045 
   34800     8000    299.77215 -0.00063906974     1377.213    1570.7221    302.55565  0.022009953   0.50204599 
   35000     8000    299.78283 -0.00064006026    1384.6632    1579.2974    302.88003  0.020830753   0.49583271 
   35200     8000    299.80436 -0.00064242792     1393.178    1589.0979    303.20233  0.020111351   0.48908101 
   35400     8000    299.78183 -0.00063915977    1400.6285    1597.6734    303.52167  0.020905615   0.48423734 
   35600     8000    299.80052 -0.00064127248    1408.0792    1606.2492    303.84329  0.020571339   0.47845067 
   35800     8000    299.78352 -0.00063878123    1416.5944    1616.0502    304.16706  0.020471945   0.47220333 
   36000     8000    299.78897 -0.00063919251    1424.0453    1624.6263     304.4921  0.019454513   0.46648281 
   36200     8000    299.78673 -0.00063855112    1432.5609    1634.4277    304.81484  0.018807892    0.4603047 
   36400     8000    299.77839 -0.00063714447    1440.0121    1643.0041    305.13501  0.019638083   0.45529541 
   36600     8000     299.7701 -0.00063575969    1447.4635    1651.5806    305.45707  0.019395782   0.45031469 
   36800     8000     299.7782 -0.00063646657    1455.9795    1661.3826    305.78073  0.018514206   0.44420746 
   37000     8000     299.7533 -0.00063284116    1463.4311    1669.9594     306.1035  0.018218635   0.43894712 
   37200     8000    299.76662 -0.00063408121    1471.9475    1679.7618    306.42427  0.017874622      0.43306 
   37400     8000    299.78436 -0.00063590629    1479.3994     1688.339    306.74379  0.017978663   0.42868264 
   37600     8000    299.78574 -0.00063563157    1486.8515    1696.9164    307.06401  0.017654876   0.42463172 
   37800     8000     299.7953 -0.00063642747    1495.3684    1706.7193    307.38394  0.017244777   0.41937761 
   38000     8000    299.81762 -0.00063891776    1502.8208     1715.297     307.7029  0.016984449   0.41432272 
   38200     8000      299.782 -0.00063396842     1511.338    1725.1003    308.02143  0.017176026   0.40946454 
   38400     8000    299.76294 -0.00063116131    1518.7907    1733.6784    308.34153  0.016868533   0.40485367 
   38600     8000    299.76753 -0.00063130372    1526.2435    1742.2566    308.66094  0.015631759   0.39991004 
   38800     8000    299.75054 -0.00062860287    1534.7612    1752.0605    308.97596  0.016222081   0.39521818 
   39000     8000     299.7652 -0.00062997282    1542.2143     1760.639    309.29164  0.015974781   0.39117068 
   39200     8000    299.78885 -0.00063247861    1550.7323    1770.4433    309.60767  0.015491638   0.38655157 
   39400     8000    299.79991 -0.00063339976    1558.1857    1779.0222    309.92266  0.015356494   0.38260178 
   39600     8000    299.79955 -0.00063288564    1565.6393    1787.6012    310.23668  0.015499552   0.37879923 
   39800     8000    299.82931 -0.00063634183    1574.1578    1797.4061    310.55112  0.014855878   0.37415785 
   40000     8000    299.83378 -0.00063659426    1581.6116    1805.9855    310.86452   0.01491346    0.3703995 
Loop time of 79.4371 on 1 procs for 40000 steps with 8000 atoms

Pair  time (%) = 42.3956 (53.3701)
Neigh time (%) = 10.2558 (12.9106)
Comm  time (%) = 0.437498 (0.550748)
Outpt time (%) = 0.142501 (0.179388)
Other time (%) = 26.2057 (32.9892)

Nlocal:    8000 ave 8000 max 8000 min
Histogram: 1 0 0 0 0 0 0 0 0 0
Nghost:    536 ave 536 max 536 min
Histogram: 1 0 0 0 0 0 0 0 0 0
Neighs:    7461 ave 7461 max 7461 min
Histogram: 1 0 0 0 0 0 0 0 0 0

Total # of neighbors = 7461
Ave neighs/atom = 0.932625
Neighbor list builds = 1472
Dangerous builds = 0
# Tensile loading
unfix 1
#undump 1
reset_timestep 0
compute MyTemp all temp
compute Mype all pe
compute peratom all stress/atom
# Computing time-averaged quantities - T & pe
fix ThermoAve all ave/time 1 100 200 c_MyTemp c_Mype
thermo 200
thermo_style custom step atoms f_ThermoAve[1] f_ThermoAve[2] lz vol pzz pe xlat ylat zlat
WARNING: New thermo_style command, previous thermo_modify settings will be lost (output.cpp:471)
thermo_modify lost warn norm yes flush yes
fix 1 all nvt temp 300.0 300.0 10.0
log 	1E9e_300K_LJ.txt
