
     Program PWSCF v.4.3.2      starts on 26Mar2012 at 14: 0:57 

     This program is part of the open-source Quantum ESPRESSO suite
     for quantum simulation of materials; please cite
         "P. Giannozzi et al., J. Phys.:Condens. Matter 21 395502 (2009);
          URL http://www.quantum-espresso.org", 
     in publications or presentations arising from this work. More details at
     http://www.quantum-espresso.org/wiki/index.php/Citing_Quantum-ESPRESSO

     Current dimensions of program PWSCF are:
     Max number of different atomic species (ntypx) = 10
     Max number of k-points (npk) =  40000
     Max angular momentum in pseudopotentials (lmaxx) =  3
     Waiting for input...
     Reading input from stdin
     warning: symmetry operation #  5 not allowed.   fractional translation:
       0.2000000  0.2000000  0.3000000  in crystal coordinates
     warning: symmetry operation #  6 not allowed.   fractional translation:
       0.2000000  0.2000000  0.3000000  in crystal coordinates
     warning: symmetry operation # 25 not allowed.   fractional translation:
       0.2000000  0.2000000  0.3000000  in crystal coordinates
     warning: symmetry operation # 26 not allowed.   fractional translation:
       0.2000000  0.2000000  0.3000000  in crystal coordinates

     G-vector sticks info
     --------------------
     sticks:   dense  smooth     PW     G-vecs:    dense   smooth      PW
     Sum         121     121     55                  941      941     259



     bravais-lattice index     =            2
     lattice parameter (alat)  =       6.7400  a.u.
     unit-cell volume          =      76.5455 (a.u.)^3
     number of atoms/cell      =            2
     number of atomic types    =            1
     number of electrons       =         8.00
     number of Kohn-Sham states=            4
     kinetic-energy cutoff     =      20.0000  Ry
     charge density cutoff     =      80.0000  Ry
     convergence threshold     =      1.0E-06
     mixing beta               =       0.7000
     number of iterations used =            8  plain     mixing
     Exchange-correlation      =  SLA  PZ   NOGX NOGC ( 1 1 0 0 0)
     EXX-fraction              =        0.00

     celldm(1)=   6.740000  celldm(2)=   0.000000  celldm(3)=   0.000000
     celldm(4)=   0.000000  celldm(5)=   0.000000  celldm(6)=   0.000000

     crystal axes: (cart. coord. in units of alat)
               a(1) = (  -0.500000   0.000000   0.500000 )  
               a(2) = (   0.000000   0.500000   0.500000 )  
               a(3) = (  -0.500000   0.500000   0.000000 )  

     reciprocal axes: (cart. coord. in units 2 pi/alat)
               b(1) = ( -1.000000 -1.000000  1.000000 )  
               b(2) = (  1.000000  1.000000  1.000000 )  
               b(3) = ( -1.000000  1.000000 -1.000000 )  


     PseudoPot. # 1 for  C read from file:
     /home/sam/Documents/espresso-4.3.2/pseudo/C.pz-kjpaw.UPF
     MD5 check sum: 414e6e825ae75add557e798061b49a04
     Pseudo is Projector augmented-wave + core cor, Zval =  4.0
     Generated using "atomic" code by A. Dal Corso (espresso distribution)
     Shape of augmentation charge: BESSEL
     Using radial grid of 1073 points,  4 beta functions with: 
                l(1) =   0
                l(2) =   0
                l(3) =   1
                l(4) =   1
     Q(r) pseudized with 0 coefficients 


     atomic species   valence    mass     pseudopotential
        C              4.00    12.01070      C( 1.00)

      4 Sym.Ops. (no inversion)


   Cartesian axes

     site n.     atom                  positions (alat units)
         1           C   tau(   1) = (   0.0000000   0.0000000   0.0500000  )
         2           C   tau(   2) = (   0.2500000   0.2500000   0.2500000  )

     number of k points=   171

     Number of k-points >= 100: set verbosity='high' to print them.

     Dense  grid:      941 G-vectors     FFT dimensions: (  15,  15,  15)

     Largest allocated arrays     est. size (Mb)     dimensions
        Kohn-Sham Wavefunctions         0.01 Mb     (    125,    4)
        NL pseudopotentials             0.03 Mb     (    125,   16)
        Each V/rho on FFT grid          0.05 Mb     (   3375)
        Each G-vector array             0.01 Mb     (    941)
        G-vector shells                 0.00 Mb     (     33)
     Largest temporary arrays     est. size (Mb)     dimensions
        Auxiliary wavefunctions         0.03 Mb     (    125,   16)
        Each subspace H/S matrix        0.00 Mb     (  16,  16)
        Each <psi_i|beta_j> matrix      0.00 Mb     (     16,    4)
        Arrays for rho mixing           0.41 Mb     (   3375,   8)

     Check: negative/imaginary core charge=   -0.000687    0.000000

     Initial potential from superposition of free atoms

     starting charge    7.99993, renormalised to    8.00000
     Starting wfc are    8 atomic wfcs

     total cpu time spent up to now is        0.7 secs

     per-process dynamical memory:     2.7 Mb

     Self-consistent Calculation

     iteration #  1     ecut=    20.00 Ry     beta=0.70
     Davidson diagonalization with overlap
     ethr =  1.00E-02,  avg # of iterations =  2.0

     total cpu time spent up to now is        1.1 secs

     total energy              =     -35.35262042 Ry
     Harris-Foulkes estimate   =     -35.40857181 Ry
     estimated scf accuracy    <       0.10710105 Ry

     iteration #  2     ecut=    20.00 Ry     beta=0.70
     Davidson diagonalization with overlap
     ethr =  1.34E-03,  avg # of iterations =  1.9

     total cpu time spent up to now is        1.4 secs

     total energy              =     -35.36129415 Ry
     Harris-Foulkes estimate   =     -35.36221307 Ry
     estimated scf accuracy    <       0.00213237 Ry

     iteration #  3     ecut=    20.00 Ry     beta=0.70
     Davidson diagonalization with overlap
     ethr =  2.67E-05,  avg # of iterations =  2.1

     total cpu time spent up to now is        1.8 secs

     total energy              =     -35.36163037 Ry
     Harris-Foulkes estimate   =     -35.36165859 Ry
     estimated scf accuracy    <       0.00005268 Ry

     iteration #  4     ecut=    20.00 Ry     beta=0.70
     Davidson diagonalization with overlap
     ethr =  6.59E-07,  avg # of iterations =  2.7

     total cpu time spent up to now is        2.2 secs

     End of self-consistent calculation

          k = 0.0000 0.0000 0.0000 (   113 PWs)   bands (ev):

    -8.3726  10.7198  14.0680  16.2474

          k =-0.1000 0.1000-0.1000 (   116 PWs)   bands (ev):

    -8.0942  10.4983  12.5483  14.7556

          k =-0.2000 0.2000-0.2000 (   122 PWs)   bands (ev):

    -7.2689   9.0878   9.8501  13.5909

          k =-0.3000 0.3000-0.3000 (   114 PWs)   bands (ev):

    -5.8993   5.5816   9.4157  12.9951

          k =-0.4000 0.4000-0.4000 (   114 PWs)   bands (ev):

    -4.1428   2.3669   9.0788  12.5675

          k = 0.5000-0.5000 0.5000 (   120 PWs)   bands (ev):

    -2.8619   0.5719   8.6951  12.1529

          k = 0.0000 0.2000 0.0000 (   117 PWs)   bands (ev):

    -8.0019   9.9405  12.7344  14.7118

          k =-0.1000 0.3000-0.1000 (   121 PWs)   bands (ev):

    -7.3597   9.5517  10.3588  12.8807

          k =-0.2000 0.4000-0.2000 (   117 PWs)   bands (ev):

    -6.1761   6.8931   9.0798  12.1325

          k =-0.3000 0.5000-0.3000 (   116 PWs)   bands (ev):

    -4.5304   3.5694   8.5795  11.6291

          k = 0.6000-0.4000 0.6000 (   114 PWs)   bands (ev):

    -2.8459   1.0988   8.2332  11.5834

          k = 0.5000-0.3000 0.5000 (   117 PWs)   bands (ev):

    -3.3202   1.7071   8.0240  11.7654

          k = 0.4000-0.2000 0.4000 (   118 PWs)   bands (ev):

    -5.1132   4.5685   8.0932  12.4156

          k = 0.3000-0.1000 0.3000 (   120 PWs)   bands (ev):

    -6.6290   7.9537   8.5866  13.2212

          k = 0.2000 0.0000 0.2000 (   119 PWs)   bands (ev):

    -7.6336   9.1150  11.4027  14.0067

          k = 0.0000 0.4000 0.0000 (   121 PWs)   bands (ev):

    -6.9012   8.3138  10.4535  12.3115

          k =-0.1000 0.5000-0.1000 (   119 PWs)   bands (ev):

    -5.9081   7.7369   8.4435  10.6238

          k =-0.2000 0.6000-0.2000 (   117 PWs)   bands (ev):

    -4.4212   5.2597   7.1161  10.0278

          k = 0.7000-0.3000 0.7000 (   115 PWs)   bands (ev):

    -2.6726   2.4153   6.4569  10.0242

          k = 0.6000-0.2000 0.6000 (   111 PWs)   bands (ev):

    -2.1884   1.8339   6.0504  10.4591

          k = 0.5000-0.1000 0.5000 (   117 PWs)   bands (ev):

    -3.8283   4.1021   5.8738  11.1051

          k = 0.4000 0.0000 0.4000 (   121 PWs)   bands (ev):

    -5.4598   5.9551   7.3232  12.0043

          k = 0.0000 0.6000 0.0000 (   125 PWs)   bands (ev):

    -5.1132   6.0534   8.7257   9.6432

          k =-0.1000 0.7000-0.1000 (   118 PWs)   bands (ev):

    -3.7867   5.2227   7.0012   8.6864

          k = 0.8000-0.2000 0.8000 (   114 PWs)   bands (ev):

    -2.1028   3.7720   4.9855   8.5690

          k = 0.7000-0.1000 0.7000 (   116 PWs)   bands (ev):

    -0.9662   2.4829   3.8643   8.9683

          k = 0.6000 0.0000 0.6000 (   115 PWs)   bands (ev):

    -2.1208   3.0200   4.5153   9.7475

          k = 0.0000 0.8000 0.0000 (   116 PWs)   bands (ev):

    -2.6232   3.5088   7.7298   8.0143

          k = 0.9000-0.1000 0.9000 (   115 PWs)   bands (ev):

    -1.1024   2.1640   6.4639   7.7174

          k = 0.8000 0.0000 0.8000 (   110 PWs)   bands (ev):

     0.3093   1.0802   4.9693   8.0898

          k = 0.0000-1.0000 0.0000 (   116 PWs)   bands (ev):

     0.3380   0.3380   7.4243   7.4243

          k =-0.2000 0.4000 0.0000 (   119 PWs)   bands (ev):

    -6.5466   9.2481   9.4547  10.0748

          k =-0.3000 0.5000-0.1000 (   116 PWs)   bands (ev):

    -5.2076   6.2040   8.8529   9.1559

          k = 0.6000-0.4000 0.8000 (   118 PWs)   bands (ev):

    -3.4851   3.0830   8.0151   9.0458

          k = 0.5000-0.3000 0.7000 (   116 PWs)   bands (ev):

    -2.2223   1.3022   7.4770   9.4800

          k =-0.2000 0.6000 0.0000 (   120 PWs)   bands (ev):

    -4.7605   7.0719   7.6672   8.0227

          k = 0.7000-0.3000 0.9000 (   116 PWs)   bands (ev):

    -3.1757   4.7793   6.2640   7.7967

          k = 0.6000-0.2000 0.8000 (   114 PWs)   bands (ev):

    -1.5804   2.4935   5.3786   8.1300

          k = 0.5000-0.1000 0.7000 (   113 PWs)   bands (ev):

    -1.9900   2.9045   4.9233   8.9165

          k = 0.4000 0.0000 0.6000 (   116 PWs)   bands (ev):

    -3.7042   4.5040   5.6609   9.9805

          k = 0.8000-0.2000 1.0000 (   113 PWs)   bands (ev):

    -2.3556   4.0559   6.8562   6.9315

          k = 0.7000-0.1000 0.9000 (   111 PWs)   bands (ev):

    -0.7454   2.7242   4.8601   7.1986

          k = 0.6000 0.0000 0.8000 (   110 PWs)   bands (ev):

    -0.3319   2.0320   4.1121   7.9301

          k =-0.2000-1.0000 0.0000 (   112 PWs)   bands (ev):

     0.3885   0.7601   6.5444   6.8398

          k = 0.6000-0.2000 1.0000 (   111 PWs)   bands (ev):

    -1.5852   4.2004   5.3538   5.9066

          k = 0.5000-0.1000 0.9000 (   112 PWs)   bands (ev):

    -0.4363   2.8134   4.5772   6.0765

          k =-0.4000-1.0000 0.0000 (   112 PWs)   bands (ev):

     0.5492   1.5807   4.9053   5.8841

          k = 0.1000 0.1000-0.1000 (   116 PWs)   bands (ev):

    -8.0944   9.7094  13.1975  15.1841

          k = 0.2000 0.2000-0.2000 (   122 PWs)   bands (ev):

    -7.2675   7.2831  11.7379  13.9062

          k = 0.3000 0.3000-0.3000 (   114 PWs)   bands (ev):

    -5.8994   4.5378  10.7875  13.0793

          k = 0.4000 0.4000-0.4000 (   114 PWs)   bands (ev):

    -4.0212   1.3931  10.0996  12.5332

          k =-0.5000-0.5000 0.5000 (   120 PWs)   bands (ev):

    -2.2478  -0.8426   9.7362  12.0868

          k = 0.0000 0.0000 0.2000 (   117 PWs)   bands (ev):

    -8.0010  10.0274  12.9893  13.8301

          k = 0.3000 0.1000-0.1000 (   121 PWs)   bands (ev):

    -7.3596   8.0226  11.3553  13.9848

          k = 0.1000-0.1000 0.3000 (   121 PWs)   bands (ev):

    -7.3572   9.3015  10.2121  13.2401

          k = 0.1000 0.1000-0.3000 (   121 PWs)   bands (ev):

    -7.3567   8.3355  11.8591  12.5631

          k = 0.4000 0.2000-0.2000 (   117 PWs)   bands (ev):

    -6.1756   5.4752  10.2909  12.8736

          k = 0.2000-0.2000 0.4000 (   117 PWs)   bands (ev):

    -6.1676   6.7519   8.8442  12.5519

          k = 0.2000 0.2000-0.4000 (   117 PWs)   bands (ev):

    -6.1687   5.6694  10.7090  11.8111

          k = 0.5000 0.3000-0.3000 (   116 PWs)   bands (ev):

    -4.4700   2.5248   9.5958  11.9435

          k = 0.3000-0.3000 0.5000 (   116 PWs)   bands (ev):

    -4.5121   3.4528   8.5964  11.6543

          k = 0.3000 0.3000-0.5000 (   116 PWs)   bands (ev):

    -4.4612   2.5775   9.6913  11.4863

          k =-0.4000-0.6000 0.6000 (   114 PWs)   bands (ev):

    -2.4043  -0.1841   9.3495  11.4201

          k =-0.6000 0.6000-0.4000 (   114 PWs)   bands (ev):

    -2.8294   1.0539   8.6093  11.0021

          k =-0.6000-0.6000 0.4000 (   114 PWs)   bands (ev):

    -2.4062  -0.1542   9.0729  11.6412

          k =-0.3000-0.5000 0.5000 (   117 PWs)   bands (ev):

    -3.1037   0.6635   9.3495  11.2918

          k =-0.5000 0.5000-0.3000 (   117 PWs)   bands (ev):

    -3.3400   1.7587   8.7442  10.5906

          k =-0.5000-0.5000 0.3000 (   117 PWs)   bands (ev):

    -3.0931   0.6331   8.7340  12.0417

          k =-0.2000-0.4000 0.4000 (   118 PWs)   bands (ev):

    -5.0925   3.6084   9.6861  11.8250

          k =-0.4000 0.4000-0.2000 (   118 PWs)   bands (ev):

    -5.1212   4.6590   9.3131  10.5576

          k =-0.4000-0.4000 0.2000 (   118 PWs)   bands (ev):

    -5.0965   3.4858   8.9619  13.0492

          k =-0.1000-0.3000 0.3000 (   120 PWs)   bands (ev):

    -6.6286   6.5412  10.4240  12.8358

          k =-0.3000 0.3000-0.1000 (   120 PWs)   bands (ev):

    -6.6363   8.1368   9.9686  11.1401

          k =-0.3000-0.3000 0.1000 (   120 PWs)   bands (ev):

    -6.6331   6.2380   9.8776  14.3406

          k =-0.2000 0.2000 0.0000 (   119 PWs)   bands (ev):

    -7.6346  10.4440  11.2452  12.3688

          k =-0.2000-0.2000 0.0000 (   119 PWs)   bands (ev):

    -7.6354   8.3384  11.5258  15.4879

          k = 0.0000 0.0000 0.4000 (   121 PWs)   bands (ev):

    -6.8878   8.4826  10.7068  11.2231

          k = 0.5000 0.1000-0.1000 (   119 PWs)   bands (ev):

    -5.9081   6.3209   9.4211  11.4692

          k = 0.1000-0.1000 0.5000 (   119 PWs)   bands (ev):

    -5.8855   7.8630   7.9277  10.6574

          k = 0.1000 0.1000-0.5000 (   119 PWs)   bands (ev):

    -5.8938   6.9401   9.2499  10.3777

          k = 0.6000 0.2000-0.2000 (   117 PWs)   bands (ev):

    -4.3867   3.7804   8.5661  10.3016

          k = 0.2000-0.2000 0.6000 (   117 PWs)   bands (ev):

    -4.3885   4.8891   7.6297   9.5931

          k = 0.2000 0.2000-0.6000 (   117 PWs)   bands (ev):

    -4.3666   4.1145   8.0586  10.0288

          k =-0.3000-0.7000 0.7000 (   115 PWs)   bands (ev):

    -2.4162   1.1247   7.9210   9.7730

          k =-0.7000 0.7000-0.3000 (   115 PWs)   bands (ev):

    -2.6323   2.2248   7.8150   8.4835

          k =-0.7000-0.7000 0.3000 (   115 PWs)   bands (ev):

    -2.4106   1.2537   7.0974  10.2701

          k =-0.2000-0.6000 0.6000 (   111 PWs)   bands (ev):

    -1.7719   0.5147   7.3834  10.0600

          k =-0.6000 0.6000-0.2000 (   111 PWs)   bands (ev):

    -2.2253   1.8608   7.8378   8.2776

          k =-0.6000-0.6000 0.2000 (   111 PWs)   bands (ev):

    -1.7290   0.4548   6.5991  10.9632

          k =-0.1000-0.5000 0.5000 (   117 PWs)   bands (ev):

    -3.7892   3.1443   7.1059  10.8135

          k =-0.5000 0.5000-0.1000 (   117 PWs)   bands (ev):

    -3.8652   4.2822   7.4362   8.8041

          k =-0.5000-0.5000 0.1000 (   117 PWs)   bands (ev):

    -3.7736   2.8845   6.5673  11.9242

          k =-0.4000 0.4000 0.0000 (   121 PWs)   bands (ev):

    -5.4809   7.3215   7.7719   9.5305

          k =-0.4000-0.4000 0.0000 (   121 PWs)   bands (ev):

    -5.4622   4.9707   7.6274  13.2650

          k = 0.0000 0.0000 0.6000 (   125 PWs)   bands (ev):

    -5.0855   7.1292   7.3450   9.3488

          k = 0.7000 0.1000-0.1000 (   118 PWs)   bands (ev):

    -3.7696   4.3397   7.9530   8.8736

          k = 0.1000-0.1000 0.7000 (   118 PWs)   bands (ev):

    -3.7519   5.4591   6.8606   8.2838

          k = 0.1000 0.1000-0.7000 (   118 PWs)   bands (ev):

    -3.7315   5.3073   6.3216   8.9102

          k =-0.2000-0.8000 0.8000 (   114 PWs)   bands (ev):

    -1.9444   2.3209   6.6193   8.4033

          k =-0.8000 0.8000-0.2000 (   114 PWs)   bands (ev):

    -2.0702   3.4194   6.7169   6.8605

          k =-0.8000-0.8000 0.2000 (   114 PWs)   bands (ev):

    -1.9376   2.9849   5.1177   8.9477

          k =-0.1000-0.7000 0.7000 (   116 PWs)   bands (ev):

    -0.3977   0.8261   5.1711   8.7891

          k =-0.7000 0.7000-0.1000 (   116 PWs)   bands (ev):

    -1.0581   2.4535   5.2800   7.2483

          k =-0.7000-0.7000 0.1000 (   116 PWs)   bands (ev):

    -0.2499   0.8514   4.2392   9.5306

          k =-0.6000 0.6000 0.0000 (   115 PWs)   bands (ev):

    -2.2584   4.2364   4.6874   7.8952

          k =-0.6000-0.6000 0.0000 (   115 PWs)   bands (ev):

    -1.9845   2.2097   4.6404  10.6031

          k = 0.0000 0.0000 0.8000 (   116 PWs)   bands (ev):

    -2.5907   4.1048   6.4122   8.2585

          k =-0.1000-0.9000 0.9000 (   115 PWs)   bands (ev):

    -0.9990   1.8004   6.8199   7.6949

          k =-0.9000 0.9000-0.1000 (   115 PWs)   bands (ev):

    -1.0822   2.5048   6.3033   7.1338

          k =-0.9000-0.9000 0.1000 (   115 PWs)   bands (ev):

    -1.0344   2.4915   5.3273   8.1476

          k =-0.8000 0.8000 0.0000 (   110 PWs)   bands (ev):

    -0.1756   2.0557   5.4510   6.6541

          k =-0.8000-0.8000 0.0000 (   110 PWs)   bands (ev):

     0.4316   1.4220   3.8324   8.6045

          k = 0.0000 0.0000-1.0000 (   116 PWs)   bands (ev):

    -0.1755   1.3048   6.0854   7.8699

          k = 0.4000 0.2000 0.0000 (   119 PWs)   bands (ev):

    -6.5399   6.6457   9.5486  13.6031

          k = 0.0000-0.4000-0.2000 (   119 PWs)   bands (ev):

    -6.5403   7.4682   9.3637  12.4999

          k = 0.2000 0.0000 0.4000 (   119 PWs)   bands (ev):

    -6.5313   7.6775   9.1664  12.1112

          k = 0.5000 0.3000-0.1000 (   116 PWs)   bands (ev):

    -5.1855   4.5779   8.1726  12.4529

          k =-0.1000-0.5000-0.3000 (   116 PWs)   bands (ev):

    -5.1867   4.8025   8.7641  11.2545

          k = 0.1000-0.5000 0.3000 (   116 PWs)   bands (ev):

    -5.1956   6.0512   7.0555  11.7171

          k = 0.3000-0.1000 0.5000 (   116 PWs)   bands (ev):

    -5.1774   5.8790   7.3119  11.2448

          k = 0.3000 0.1000-0.5000 (   116 PWs)   bands (ev):

    -5.1786   5.0014   8.4788  11.1368

          k =-0.4000-0.6000 0.8000 (   118 PWs)   bands (ev):

    -3.3437   1.8696   7.6024  11.1673

          k = 0.8000 0.4000 0.6000 (   118 PWs)   bands (ev):

    -3.3557   1.9522   8.5714   9.9789

          k =-0.8000 0.4000-0.6000 (   118 PWs)   bands (ev):

    -3.4694   3.0432   6.6538  10.9052

          k =-0.6000 0.8000-0.4000 (   118 PWs)   bands (ev):

    -3.4482   2.9191   7.1291  10.2144

          k =-0.6000-0.8000 0.4000 (   118 PWs)   bands (ev):

    -3.3417   2.0181   7.9110  10.3692

          k =-0.3000-0.5000 0.7000 (   116 PWs)   bands (ev):

    -1.5778  -0.1862   7.6313  10.4999

          k = 0.7000 0.3000 0.5000 (   116 PWs)   bands (ev):

    -1.5914  -0.2047   8.7498   9.3503

          k =-0.7000 0.3000-0.5000 (   116 PWs)   bands (ev):

    -2.2225   1.3297   6.6111  10.7377

          k = 0.6000 0.2000 0.0000 (   120 PWs)   bands (ev):

    -4.7519   4.9075   7.8877  10.6697

          k = 0.0000-0.6000-0.2000 (   120 PWs)   bands (ev):

    -4.7520   5.5739   7.7124   9.8757

          k = 0.2000 0.0000 0.6000 (   120 PWs)   bands (ev):

    -4.7270   6.1459   7.0569   9.5440

          k =-0.3000-0.7000 0.9000 (   116 PWs)   bands (ev):

    -3.0751   3.0092   6.7158   9.4804

          k = 0.9000 0.3000 0.7000 (   116 PWs)   bands (ev):

    -3.0946   3.2226   7.5695   8.3110

          k =-0.9000 0.3000-0.7000 (   116 PWs)   bands (ev):

    -3.1513   4.5024   5.4099   9.2223

          k =-0.7000 0.9000-0.3000 (   116 PWs)   bands (ev):

    -3.1181   4.2167   6.2628   8.2691

          k =-0.7000-0.9000 0.3000 (   116 PWs)   bands (ev):

    -3.0678   3.6132   6.2093   8.9788

          k =-0.2000-0.6000 0.8000 (   114 PWs)   bands (ev):

    -1.0432   0.8412   6.0823   8.8401

          k = 0.8000 0.2000 0.6000 (   114 PWs)   bands (ev):

    -1.0946   0.8811   6.9584   7.9256

          k =-0.8000 0.2000-0.6000 (   114 PWs)   bands (ev):

    -1.5490   2.4845   4.7548   9.0402

          k =-0.6000 0.8000-0.2000 (   114 PWs)   bands (ev):

    -1.5490   2.2983   6.3385   7.2147

          k =-0.6000-0.8000 0.2000 (   114 PWs)   bands (ev):

    -1.0909   1.0576   5.5847   9.0503

          k =-0.1000-0.5000 0.7000 (   113 PWs)   bands (ev):

    -1.8066   1.8935   5.6683   9.0845

          k = 0.7000 0.1000 0.5000 (   113 PWs)   bands (ev):

    -1.8226   1.7864   6.1614   8.8629

          k =-0.7000 0.1000-0.5000 (   113 PWs)   bands (ev):

    -2.0049   3.0326   4.5435   9.4180

          k =-0.5000 0.7000-0.1000 (   113 PWs)   bands (ev):

    -2.0800   3.1494   6.1387   7.3012

          k =-0.5000-0.7000 0.1000 (   113 PWs)   bands (ev):

    -1.7345   1.6145   5.3385   9.8250

          k = 0.6000 0.0000 0.4000 (   116 PWs)   bands (ev):

    -3.7183   4.3029   5.9025  10.1875

          k =-0.4000 0.6000 0.0000 (   116 PWs)   bands (ev):

    -3.7664   5.9175   5.9240   8.0202

          k =-0.4000-0.6000 0.0000 (   116 PWs)   bands (ev):

    -3.6935   3.4885   6.0584  11.0673

          k =-0.2000-0.8000 1.0000 (   113 PWs)   bands (ev):

    -2.2499   2.9382   6.9101   8.0794

          k = 1.0000 0.2000 0.8000 (   113 PWs)   bands (ev):

    -2.3078   3.3995   6.8536   7.7014

          k =-0.8000 1.0000-0.2000 (   113 PWs)   bands (ev):

    -2.2799   4.0157   5.7941   7.7634

          k =-0.1000-0.7000 0.9000 (   111 PWs)   bands (ev):

    -0.3310   1.4509   5.4402   7.5103

          k = 0.9000 0.1000 0.7000 (   111 PWs)   bands (ev):

    -0.4431   1.6187   5.8035   7.1645

          k =-0.9000 0.1000-0.7000 (   111 PWs)   bands (ev):

    -0.6687   2.3880   4.8440   7.5692

          k =-0.7000 0.9000-0.1000 (   111 PWs)   bands (ev):

    -0.7017   2.6860   5.7024   6.0660

          k =-0.7000-0.9000 0.1000 (   111 PWs)   bands (ev):

    -0.4774   2.3267   4.2058   7.8872

          k = 0.8000 0.0000 0.6000 (   110 PWs)   bands (ev):

    -0.3207   1.8853   4.2889   8.0347

          k =-0.6000 0.8000 0.0000 (   110 PWs)   bands (ev):

    -0.6689   3.0719   4.5733   6.4316

          k =-0.6000-0.8000 0.0000 (   110 PWs)   bands (ev):

     0.2226   1.2021   3.7894   8.5922

          k = 0.0000 1.0000-0.2000 (   112 PWs)   bands (ev):

     0.5596   0.5596   6.7174   6.7174

          k = 0.2000 0.0000-1.0000 (   112 PWs)   bands (ev):

     0.0192   1.6066   5.3704   7.1927

          k =-0.2000-0.6000 1.0000 (   111 PWs)   bands (ev):

    -1.2523   2.1559   5.1577   8.0785

          k = 1.0000 0.2000 0.6000 (   111 PWs)   bands (ev):

    -1.4314   2.8336   5.2647   7.5048

          k =-0.6000 1.0000-0.2000 (   111 PWs)   bands (ev):

    -1.4222   3.2815   4.6815   7.3723

          k =-0.1000-0.5000 0.9000 (   112 PWs)   bands (ev):

     0.2752   1.2086   4.5261   7.2197

          k = 0.9000 0.1000 0.5000 (   112 PWs)   bands (ev):

     0.1811   1.0955   5.8224   6.2290

          k =-0.9000 0.1000-0.5000 (   112 PWs)   bands (ev):

    -0.3272   2.4437   4.0772   7.1511

          k = 0.0000 1.0000-0.4000 (   112 PWs)   bands (ev):

     0.9555   0.9555   5.5846   5.5846

          k = 0.4000 0.0000-1.0000 (   112 PWs)   bands (ev):

     0.3969   2.1047   4.2732   6.0573

!    total energy              =     -35.36164901 Ry
     Harris-Foulkes estimate   =     -35.36164944 Ry
     estimated scf accuracy    <       0.00000054 Ry

     total all-electron energy =      -150.920645 Ry

     The total energy is the sum of the following terms:

     one-electron contribution =       8.61728715 Ry
     hartree contribution      =       1.86863308 Ry
     xc contribution           =      -8.33447524 Ry
     ewald contribution        =     -25.47879239 Ry
     one-center paw contrib.   =     -12.03430160 Ry

     convergence has been achieved in   4 iterations

     Forces acting on atoms (Ry/au):

     atom    1 type  1   force =     0.00000000    0.00000000   -0.33319950
     atom    2 type  1   force =     0.00000000    0.00000000    0.33319950

     Total force =     0.471215     Total SCF correction =     0.000231

     Writing output data file diamond.save

     init_run     :      0.42s CPU      0.44s WALL (       1 calls)
     electrons    :      1.44s CPU      1.87s WALL (       1 calls)
     forces       :      0.04s CPU      0.03s WALL (       1 calls)

     Called by init_run:
     wfcinit      :      0.17s CPU      0.18s WALL (       1 calls)
     potinit      :      0.03s CPU      0.03s WALL (       1 calls)

     Called by electrons:
     c_bands      :      1.09s CPU      1.14s WALL (       4 calls)
     sum_band     :      0.19s CPU      0.20s WALL (       4 calls)
     v_of_rho     :      0.00s CPU      0.00s WALL (       5 calls)
     newd         :      0.01s CPU      0.01s WALL (       5 calls)
     mix_rho      :      0.03s CPU      0.03s WALL (       4 calls)

     Called by c_bands:
     init_us_2    :      0.08s CPU      0.08s WALL (    1710 calls)
     cegterg      :      1.00s CPU      1.04s WALL (     684 calls)

     Called by *egterg:
     h_psi        :      0.88s CPU      0.93s WALL (    2334 calls)
     s_psi        :      0.03s CPU      0.05s WALL (    2334 calls)
     g_psi        :      0.01s CPU      0.01s WALL (    1479 calls)
     cdiaghg      :      0.12s CPU      0.10s WALL (    2163 calls)

     Called by h_psi:
     add_vuspsi   :      0.04s CPU      0.05s WALL (    2334 calls)

     General routines
     calbec       :      0.10s CPU      0.06s WALL (    3189 calls)
     fft          :      0.00s CPU      0.00s WALL (      33 calls)
     fftw         :      0.75s CPU      0.80s WALL (   20554 calls)
     davcio       :      0.00s CPU      0.02s WALL (    2394 calls)


     PAW routines
     PAW_pot      :      0.16s CPU      0.16s WALL (       5 calls)
     PAW_ddot     :      0.03s CPU      0.03s WALL (      11 calls)
     PAW_symme    :      0.00s CPU      0.00s WALL (       9 calls)

     PWSCF        :     2.54s CPU         3.43s WALL


   This run was terminated on:  14: 1: 0  26Mar2012            

=------------------------------------------------------------------------------=
   JOB DONE.
=------------------------------------------------------------------------------=
