
     Program PWSCF v.4.3.2      starts on 26Mar2012 at 14: 1: 0 

     This program is part of the open-source Quantum ESPRESSO suite
     for quantum simulation of materials; please cite
         "P. Giannozzi et al., J. Phys.:Condens. Matter 21 395502 (2009);
          URL http://www.quantum-espresso.org", 
     in publications or presentations arising from this work. More details at
     http://www.quantum-espresso.org/wiki/index.php/Citing_Quantum-ESPRESSO

     Current dimensions of program PWSCF are:
     Max number of different atomic species (ntypx) = 10
     Max number of k-points (npk) =  40000
     Max angular momentum in pseudopotentials (lmaxx) =  3
     Waiting for input...
     Reading input from stdin
     warning: symmetry operation #  5 not allowed.   fractional translation:
       0.2000000  0.2000000  0.3000000  in crystal coordinates
     warning: symmetry operation #  6 not allowed.   fractional translation:
       0.2000000  0.2000000  0.3000000  in crystal coordinates
     warning: symmetry operation # 25 not allowed.   fractional translation:
       0.2000000  0.2000000  0.3000000  in crystal coordinates
     warning: symmetry operation # 26 not allowed.   fractional translation:
       0.2000000  0.2000000  0.3000000  in crystal coordinates

     G-vector sticks info
     --------------------
     sticks:   dense  smooth     PW     G-vecs:    dense   smooth      PW
     Sum         121     121     55                  941      941     259



     bravais-lattice index     =            2
     lattice parameter (alat)  =       6.7400  a.u.
     unit-cell volume          =      76.5455 (a.u.)^3
     number of atoms/cell      =            2
     number of atomic types    =            1
     number of electrons       =         8.00
     number of Kohn-Sham states=            4
     kinetic-energy cutoff     =      20.0000  Ry
     charge density cutoff     =      80.0000  Ry
     convergence threshold     =      1.0E-06
     mixing beta               =       0.7000
     number of iterations used =            8  plain     mixing
     Exchange-correlation      =  SLA  PZ   NOGX NOGC ( 1 1 0 0 0)
     EXX-fraction              =        0.00

     celldm(1)=   6.740000  celldm(2)=   0.000000  celldm(3)=   0.000000
     celldm(4)=   0.000000  celldm(5)=   0.000000  celldm(6)=   0.000000

     crystal axes: (cart. coord. in units of alat)
               a(1) = (  -0.500000   0.000000   0.500000 )  
               a(2) = (   0.000000   0.500000   0.500000 )  
               a(3) = (  -0.500000   0.500000   0.000000 )  

     reciprocal axes: (cart. coord. in units 2 pi/alat)
               b(1) = ( -1.000000 -1.000000  1.000000 )  
               b(2) = (  1.000000  1.000000  1.000000 )  
               b(3) = ( -1.000000  1.000000 -1.000000 )  


     PseudoPot. # 1 for  C read from file:
     /home/sam/Documents/espresso-4.3.2/pseudo/C.pz-kjpaw.UPF
     MD5 check sum: 414e6e825ae75add557e798061b49a04
     Pseudo is Projector augmented-wave + core cor, Zval =  4.0
     Generated using "atomic" code by A. Dal Corso (espresso distribution)
     Shape of augmentation charge: BESSEL
     Using radial grid of 1073 points,  4 beta functions with: 
                l(1) =   0
                l(2) =   0
                l(3) =   1
                l(4) =   1
     Q(r) pseudized with 0 coefficients 


     atomic species   valence    mass     pseudopotential
        C              4.00    12.01070      C( 1.00)

      4 Sym.Ops. (no inversion)


   Cartesian axes

     site n.     atom                  positions (alat units)
         1           C   tau(   1) = (   0.0000000   0.0000000   0.0500000  )
         2           C   tau(   2) = (   0.2500000   0.2500000   0.2500000  )

     number of k points=   280

     Number of k-points >= 100: set verbosity='high' to print them.

     Dense  grid:      941 G-vectors     FFT dimensions: (  15,  15,  15)

     Largest allocated arrays     est. size (Mb)     dimensions
        Kohn-Sham Wavefunctions         0.01 Mb     (    125,    4)
        NL pseudopotentials             0.03 Mb     (    125,   16)
        Each V/rho on FFT grid          0.05 Mb     (   3375)
        Each G-vector array             0.01 Mb     (    941)
        G-vector shells                 0.00 Mb     (     33)
     Largest temporary arrays     est. size (Mb)     dimensions
        Auxiliary wavefunctions         0.03 Mb     (    125,   16)
        Each subspace H/S matrix        0.00 Mb     (  16,  16)
        Each <psi_i|beta_j> matrix      0.00 Mb     (     16,    4)
        Arrays for rho mixing           0.41 Mb     (   3375,   8)

     Check: negative/imaginary core charge=   -0.000687    0.000000

     Initial potential from superposition of free atoms

     starting charge    7.99993, renormalised to    8.00000
     Starting wfc are    8 atomic wfcs

     total cpu time spent up to now is        0.9 secs

     per-process dynamical memory:     2.7 Mb

     Self-consistent Calculation

     iteration #  1     ecut=    20.00 Ry     beta=0.70
     Davidson diagonalization with overlap
     ethr =  1.00E-02,  avg # of iterations =  2.0

     total cpu time spent up to now is        1.5 secs

     total energy              =     -35.35205067 Ry
     Harris-Foulkes estimate   =     -35.40798513 Ry
     estimated scf accuracy    <       0.10709681 Ry

     iteration #  2     ecut=    20.00 Ry     beta=0.70
     Davidson diagonalization with overlap
     ethr =  1.34E-03,  avg # of iterations =  1.9

     total cpu time spent up to now is        2.4 secs

     total energy              =     -35.36071849 Ry
     Harris-Foulkes estimate   =     -35.36163767 Ry
     estimated scf accuracy    <       0.00213280 Ry

     iteration #  3     ecut=    20.00 Ry     beta=0.70
     Davidson diagonalization with overlap
     ethr =  2.67E-05,  avg # of iterations =  2.1

     total cpu time spent up to now is        3.0 secs

     total energy              =     -35.36105164 Ry
     Harris-Foulkes estimate   =     -35.36108039 Ry
     estimated scf accuracy    <       0.00005290 Ry

     iteration #  4     ecut=    20.00 Ry     beta=0.70
     Davidson diagonalization with overlap
     ethr =  6.61E-07,  avg # of iterations =  2.7

     total cpu time spent up to now is        3.7 secs

     End of self-consistent calculation

          k = 0.0000 0.0000 0.0000 (   113 PWs)   bands (ev):

    -8.3727  10.7195  14.0676  16.2469

          k =-0.0833 0.0833-0.0833 (   116 PWs)   bands (ev):

    -8.1793  10.5610  13.0064  14.9911

          k =-0.1667 0.1667-0.1667 (   122 PWs)   bands (ev):

    -7.6043  10.0430  10.2905  13.9001

          k =-0.2500 0.2500-0.2500 (   117 PWs)   bands (ev):

    -6.6539   7.3198   9.6830  13.3227

          k =-0.3333 0.3333-0.3333 (   117 PWs)   bands (ev):

    -5.3527   4.3507   9.2501  12.7984

          k =-0.4167 0.4167-0.4167 (   114 PWs)   bands (ev):

    -3.8387   1.9122   9.0378  12.5251

          k = 0.5000-0.5000 0.5000 (   120 PWs)   bands (ev):

    -2.8621   0.5717   8.6948  12.1524

          k = 0.0000 0.1667 0.0000 (   117 PWs)   bands (ev):

    -8.1151  10.1521  13.0640  15.0863

          k =-0.0833 0.2500-0.0833 (   121 PWs)   bands (ev):

    -7.6679   9.8642  11.2430  13.4559

          k =-0.1667 0.3333-0.1667 (   119 PWs)   bands (ev):

    -6.8443   8.4365   9.4817  12.6472

          k =-0.2500 0.4167-0.2500 (   116 PWs)   bands (ev):

    -5.6494   5.5086   9.0283  12.1288

          k =-0.3333 0.5000-0.3333 (   115 PWs)   bands (ev):

    -4.1944   2.8371   8.6776  11.8227

          k = 0.5833-0.4167 0.5833 (   114 PWs)   bands (ev):

    -2.8528   0.9459   8.4414  11.8132

          k = 0.5000-0.3333 0.5000 (   116 PWs)   bands (ev):

    -3.2093   1.3948   8.3292  11.9079

          k = 0.4167-0.2500 0.4167 (   117 PWs)   bands (ev):

    -4.6956   3.6304   8.3466  12.3685

          k = 0.3333-0.1667 0.3333 (   121 PWs)   bands (ev):

    -6.0892   6.3305   8.6252  13.0199

          k = 0.2500-0.0833 0.2500 (   119 PWs)   bands (ev):

    -7.1563   9.0629   9.3716  13.6383

          k = 0.1667 0.0000 0.1667 (   119 PWs)   bands (ev):

    -7.8590   9.5540  12.0856  14.3197

          k = 0.0000 0.3333 0.0000 (   125 PWs)   bands (ev):

    -7.3496   8.7597  11.1132  13.0129

          k =-0.0833 0.4167-0.0833 (   120 PWs)   bands (ev):

    -6.6549   8.6355   9.4935  11.6112

          k =-0.1667 0.5000-0.1667 (   120 PWs)   bands (ev):

    -5.5967   6.7876   8.0412  10.8708

          k =-0.2500 0.5833-0.2500 (   113 PWs)   bands (ev):

    -4.2185   4.1886   7.5767  10.5786

          k = 0.6667-0.3333 0.6667 (   115 PWs)   bands (ev):

    -2.7658   1.9016   7.1001  10.5507

          k = 0.5833-0.2500 0.5833 (   116 PWs)   bands (ev):

    -2.4000   1.4259   6.7720  10.8462

          k = 0.5000-0.1667 0.5000 (   115 PWs)   bands (ev):

    -3.7081   3.2454   6.6828  11.3550

          k = 0.4167-0.0833 0.4167 (   117 PWs)   bands (ev):

    -5.1545   5.7519   6.8258  12.0480

          k = 0.3333 0.0000 0.3333 (   119 PWs)   bands (ev):

    -6.3268   7.0856   8.6678  12.6903

          k = 0.0000 0.5000 0.0000 (   125 PWs)   bands (ev):

    -6.0956   7.1776   9.5043  10.8580

          k =-0.0833 0.5833-0.0833 (   118 PWs)   bands (ev):

    -5.1545   6.7408   8.1619   9.6689

          k =-0.1667 0.6667-0.1667 (   118 PWs)   bands (ev):

    -3.9034   5.4586   6.2848   9.2453

          k = 0.7500-0.2500 0.7500 (   113 PWs)   bands (ev):

    -2.4450   3.3106   5.5118   9.2408

          k = 0.6667-0.1667 0.6667 (   116 PWs)   bands (ev):

    -1.5385   2.0769   4.9193   9.5059

          k = 0.5833-0.0833 0.5833 (   115 PWs)   bands (ev):

    -2.4335   3.1805   4.6693  10.1413

          k = 0.5000 0.0000 0.5000 (   117 PWs)   bands (ev):

    -3.8834   4.3606   5.7006  10.8874

          k = 0.0000 0.6667 0.0000 (   113 PWs)   bands (ev):

    -4.3339   5.4711   8.4003   9.0785

          k =-0.0833 0.7500-0.0833 (   116 PWs)   bands (ev):

    -3.2082   4.4847   7.0906   8.3220

          k = 0.8333-0.1667 0.8333 (   114 PWs)   bands (ev):

    -1.8195   3.4033   5.4029   8.2204

          k = 0.7500-0.0833 0.7500 (   112 PWs)   bands (ev):

    -0.6345   2.4293   4.0419   8.5376

          k = 0.6667 0.0000 0.6667 (   116 PWs)   bands (ev):

    -0.9894   2.2088   4.0334   9.0667

          k = 0.0000 0.8333 0.0000 (   116 PWs)   bands (ev):

    -2.1598   2.9865   7.6225   7.8448

          k = 0.9167-0.0833 0.9167 (   115 PWs)   bands (ev):

    -0.8906   1.8396   6.7315   7.6278

          k = 0.8333 0.0000 0.8333 (   110 PWs)   bands (ev):

     0.3664   0.8718   5.5202   7.8964

          k = 0.0000-1.0000 0.0000 (   116 PWs)   bands (ev):

     0.3378   0.3378   7.4240   7.4240

          k =-0.1667 0.3333 0.0000 (   120 PWs)   bands (ev):

    -7.0970   9.7839  10.2278  11.2203

          k =-0.2500 0.4167-0.0833 (   119 PWs)   bands (ev):

    -6.1561   7.7166   9.3821  10.1796

          k =-0.3333 0.5000-0.1667 (   115 PWs)   bands (ev):

    -4.8694   4.8914   8.8862   9.8668

          k = 0.5833-0.4167 0.7500 (   116 PWs)   bands (ev):

    -3.3862   2.4265   8.3359   9.8253

          k = 0.5000-0.3333 0.6667 (   118 PWs)   bands (ev):

    -2.4162   1.0794   7.8806  10.0944

          k =-0.1667 0.5000 0.0000 (   120 PWs)   bands (ev):

    -5.8454   8.2211   8.6742   9.2884

          k =-0.2500 0.5833-0.0833 (   119 PWs)   bands (ev):

    -4.6876   6.2960   7.6313   8.6256

          k = 0.6667-0.3333 0.8333 (   115 PWs)   bands (ev):

    -3.2593   3.7799   6.9167   8.6477

          k = 0.5833-0.2500 0.7500 (   116 PWs)   bands (ev):

    -1.9805   1.9167   6.2914   8.8984

          k = 0.5000-0.1667 0.6667 (   115 PWs)   bands (ev):

    -2.2874   2.2929   5.9257   9.4805

          k = 0.4167-0.0833 0.5833 (   116 PWs)   bands (ev):

    -3.7226   4.3073   5.8289  10.2857

          k = 0.3333 0.0000 0.5000 (   114 PWs)   bands (ev):

    -5.0784   5.8670   7.0331  11.3249

          k =-0.1667 0.6667 0.0000 (   116 PWs)   bands (ev):

    -4.1224   6.0600   7.6286   7.8531

          k = 0.7500-0.2500 0.9167 (   115 PWs)   bands (ev):

    -2.8097   4.7921   5.8743   7.6788

          k = 0.6667-0.1667 0.8333 (   112 PWs)   bands (ev):

    -1.4176   3.1354   4.6973   7.9774

          k = 0.5833-0.0833 0.7500 (   114 PWs)   bands (ev):

    -1.0888   2.6058   4.0893   8.4569

          k = 0.5000 0.0000 0.6667 (   114 PWs)   bands (ev):

    -2.2945   3.3183   4.6457   9.2912

          k = 0.8333-0.1667 1.0000 (   115 PWs)   bands (ev):

    -1.9945   3.3868   6.9413   7.0143

          k = 0.7500-0.0833 0.9167 (   112 PWs)   bands (ev):

    -0.6518   2.2905   5.3982   7.1990

          k = 0.6667 0.0000 0.8333 (   109 PWs)   bands (ev):

     0.1364   1.5495   4.3291   7.8454

          k =-0.1667-1.0000 0.0000 (   112 PWs)   bands (ev):

     0.3632   0.6553   6.7907   7.0104

          k = 0.6667-0.3333 1.0000 (   116 PWs)   bands (ev):

    -3.4607   5.8747   6.1257   7.1684

          k = 0.5833-0.2500 0.9167 (   113 PWs)   bands (ev):

    -2.0518   3.7613   5.8096   6.7135

          k = 0.5000-0.1667 0.8333 (   114 PWs)   bands (ev):

    -1.1371   2.4356   5.3306   7.0669

          k = 0.6667-0.1667 1.0000 (   113 PWs)   bands (ev):

    -1.4810   3.7893   5.7469   5.8356

          k = 0.5833-0.0833 0.9167 (   111 PWs)   bands (ev):

    -0.3253   2.7627   4.4420   6.2514

          k = 0.5000 0.0000 0.8333 (   112 PWs)   bands (ev):

    -0.5377   2.4866   4.2158   7.1520

          k =-0.3333-1.0000 0.0000 (   112 PWs)   bands (ev):

     0.5138   1.2654   5.4349   6.0990

          k =-0.5000-1.0000 0.0000 (   108 PWs)   bands (ev):

     0.5454   2.0073   4.4232   5.8460

          k = 0.0833 0.0833-0.0833 (   116 PWs)   bands (ev):

    -8.1795   9.9886  13.4117  15.4084

          k = 0.1667 0.1667-0.1667 (   122 PWs)   bands (ev):

    -7.6043   8.1922  12.1694  14.2838

          k = 0.2500 0.2500-0.2500 (   117 PWs)   bands (ev):

    -6.6513   6.0681  11.2401  13.4646

          k = 0.3333 0.3333-0.3333 (   117 PWs)   bands (ev):

    -5.3328   3.3600  10.4581  12.8437

          k = 0.4167 0.4167-0.4167 (   114 PWs)   bands (ev):

    -3.6706   0.9111  10.0364  12.4795

          k =-0.5000-0.5000 0.5000 (   120 PWs)   bands (ev):

    -2.2481  -0.8427   9.7359  12.0863

          k = 0.0000 0.0000 0.1667 (   117 PWs)   bands (ev):

    -8.1147  10.2073  13.2762  14.2842

          k = 0.2500 0.0833-0.0833 (   121 PWs)   bands (ev):

    -7.6685   8.6972  11.9195  14.5003

          k = 0.0833-0.0833 0.2500 (   121 PWs)   bands (ev):

    -7.6664   9.6280  11.1755  13.6862

          k = 0.0833 0.0833-0.2500 (   121 PWs)   bands (ev):

    -7.6664   8.9737  12.3783  13.1561

          k = 0.3333 0.1667-0.1667 (   119 PWs)   bands (ev):

    -6.8403   6.6973  10.8573  13.5689

          k = 0.1667-0.1667 0.3333 (   119 PWs)   bands (ev):

    -6.8376   8.2841   9.1324  13.1802

          k = 0.1667 0.1667-0.3333 (   119 PWs)   bands (ev):

    -6.8337   6.8555  11.4361  12.3492

          k = 0.4167 0.2500-0.2500 (   116 PWs)   bands (ev):

    -5.6440   4.3631  10.1614  12.7067

          k = 0.2500-0.2500 0.4167 (   116 PWs)   bands (ev):

    -5.6440   5.4136   8.8468  12.5238

          k = 0.2500 0.2500-0.4167 (   116 PWs)   bands (ev):

    -5.6391   4.4992  10.4371  11.8864

          k = 0.5000 0.3333-0.3333 (   115 PWs)   bands (ev):

    -4.1005   1.8191   9.6721  12.0662

          k = 0.3333-0.3333 0.5000 (   115 PWs)   bands (ev):

    -4.1774   2.7470   8.6888  11.8678

          k = 0.3333 0.3333-0.5000 (   115 PWs)   bands (ev):

    -4.0927   1.8510   9.7497  11.7013

          k =-0.4167-0.5833 0.5833 (   114 PWs)   bands (ev):

    -2.3714  -0.3601   9.5111  11.6733

          k =-0.5833 0.5833-0.4167 (   114 PWs)   bands (ev):

    -2.8400   0.9137   8.7096  11.3723

          k =-0.5833-0.5833 0.4167 (   114 PWs)   bands (ev):

    -2.3729  -0.3400   9.3103  11.8399

          k =-0.3333-0.5000 0.5000 (   116 PWs)   bands (ev):

    -2.9365   0.3066   9.5342  11.5276

          k =-0.5000 0.5000-0.3333 (   116 PWs)   bands (ev):

    -3.2248   1.4364   8.7498  11.0624

          k =-0.5000-0.5000 0.3333 (   116 PWs)   bands (ev):

    -2.9275   0.2844   9.1421  12.0781

          k =-0.2500-0.4167 0.4167 (   117 PWs)   bands (ev):

    -4.6513   2.6908   9.8482  11.8074

          k =-0.4167 0.4167-0.2500 (   117 PWs)   bands (ev):

    -4.7022   3.6967   9.1746  10.9910

          k =-0.4167-0.4167 0.2500 (   117 PWs)   bands (ev):

    -4.6550   2.6152   9.2576  12.8130

          k =-0.1667-0.3333 0.3333 (   121 PWs)   bands (ev):

    -6.0849   5.1687  10.3492  12.4708

          k =-0.3333 0.3333-0.1667 (   121 PWs)   bands (ev):

    -6.0988   6.4316   9.7021  11.3136

          k =-0.3333-0.3333 0.1667 (   121 PWs)   bands (ev):

    -6.0888   4.9958   9.7336  13.7897

          k =-0.0833-0.2500 0.2500 (   119 PWs)   bands (ev):

    -7.1549   7.6412  11.1608  13.3441

          k =-0.2500 0.2500-0.0833 (   119 PWs)   bands (ev):

    -7.1608   9.4806  10.1927  11.9721

          k =-0.2500-0.2500 0.0833 (   119 PWs)   bands (ev):

    -7.1590   7.3144  10.7115  14.8265

          k =-0.1667 0.1667 0.0000 (   119 PWs)   bands (ev):

    -7.8594  10.5301  11.8952  13.1841

          k =-0.1667-0.1667 0.0000 (   119 PWs)   bands (ev):

    -7.8605   8.9029  12.1377  15.7222

          k = 0.0000 0.0000 0.3333 (   125 PWs)   bands (ev):

    -7.3455   8.9491  11.4854  11.9863

          k = 0.4167 0.0833-0.0833 (   120 PWs)   bands (ev):

    -6.6520   7.2385  10.1830  12.6920

          k = 0.0833-0.0833 0.4167 (   120 PWs)   bands (ev):

    -6.6424   8.4131   9.1963  11.7907

          k = 0.0833 0.0833-0.4167 (   120 PWs)   bands (ev):

    -6.6368   7.6985  10.4784  11.1428

          k = 0.5000 0.1667-0.1667 (   120 PWs)   bands (ev):

    -5.5930   5.1996   9.3462  11.5964

          k = 0.1667-0.1667 0.5000 (   120 PWs)   bands (ev):

    -5.5734   6.4639   8.0587  10.9704

          k = 0.1667 0.1667-0.5000 (   120 PWs)   bands (ev):

    -5.5803   5.5646   9.3908  10.6344

          k = 0.5833 0.2500-0.2500 (   113 PWs)   bands (ev):

    -4.1610   2.9880   8.9285  10.7567

          k = 0.2500-0.2500 0.5833 (   113 PWs)   bands (ev):

    -4.1921   3.9719   8.0395  10.1467

          k = 0.2500 0.2500-0.5833 (   113 PWs)   bands (ev):

    -4.1462   3.1729   8.5084  10.5554

          k =-0.3333-0.6667 0.6667 (   115 PWs)   bands (ev):

    -2.4604   0.6517   8.4577  10.2928

          k =-0.6667 0.6667-0.3333 (   115 PWs)   bands (ev):

    -2.7330   1.7763   8.1018   9.3198

          k =-0.6667-0.6667 0.3333 (   115 PWs)   bands (ev):

    -2.4546   0.7195   7.8000  10.7401

          k =-0.2500-0.5833 0.5833 (   116 PWs)   bands (ev):

    -1.9360   0.0958   8.1249  10.3943

          k =-0.5833 0.5833-0.2500 (   116 PWs)   bands (ev):

    -2.4247   1.4515   8.4162   8.7471

          k =-0.5833-0.5833 0.2500 (   116 PWs)   bands (ev):

    -1.9060   0.0716   7.3355  11.2581

          k =-0.1667-0.5000 0.5000 (   115 PWs)   bands (ev):

    -3.6290   2.2729   8.0406  10.8930

          k =-0.5000 0.5000-0.1667 (   115 PWs)   bands (ev):

    -3.7357   3.3500   8.5556   8.8424

          k =-0.5000-0.5000 0.1667 (   115 PWs)   bands (ev):

    -3.6206   2.1463   7.3204  12.0150

          k =-0.0833-0.4167 0.4167 (   117 PWs)   bands (ev):

    -5.1486   4.6946   8.1553  11.7430

          k =-0.4167 0.4167-0.0833 (   117 PWs)   bands (ev):

    -5.1745   5.9842   8.5643   9.4193

          k =-0.4167-0.4167 0.0833 (   117 PWs)   bands (ev):

    -5.1547   4.3416   7.7237  13.0637

          k =-0.3333 0.3333 0.0000 (   119 PWs)   bands (ev):

    -6.3386   8.6628   9.2834   9.8587

          k =-0.3333-0.3333 0.0000 (   119 PWs)   bands (ev):

    -6.3292   6.1300   8.9048  14.1293

          k = 0.0000 0.0000 0.5000 (   125 PWs)   bands (ev):

    -6.0759   7.7571   8.9750  10.1924

          k = 0.5833 0.0833-0.0833 (   118 PWs)   bands (ev):

    -5.1520   5.7537   8.7885  10.2617

          k = 0.0833-0.0833 0.5833 (   118 PWs)   bands (ev):

    -5.1271   7.1834   7.4161   9.5495

          k = 0.0833 0.0833-0.5833 (   118 PWs)   bands (ev):

    -5.1274   6.6252   7.9365   9.6377

          k = 0.6667 0.1667-0.1667 (   118 PWs)   bands (ev):

    -3.8607   3.8026   7.9943   9.3562

          k = 0.1667-0.1667 0.6667 (   118 PWs)   bands (ev):

    -3.8618   4.9622   7.1837   8.4701

          k = 0.1667 0.1667-0.6667 (   118 PWs)   bands (ev):

    -3.8397   4.4033   6.9259   9.3927

          k =-0.2500-0.7500 0.7500 (   113 PWs)   bands (ev):

    -2.2476   1.8545   7.1841   9.0190

          k =-0.7500 0.7500-0.2500 (   113 PWs)   bands (ev):

    -2.4038   2.9633   7.2850   7.4707

          k =-0.7500-0.7500 0.2500 (   113 PWs)   bands (ev):

    -2.2330   2.1822   6.0409   9.5492

          k =-0.1667-0.6667 0.6667 (   116 PWs)   bands (ev):

    -0.9071   0.4032   6.3035   9.2117

          k =-0.6667 0.6667-0.1667 (   116 PWs)   bands (ev):

    -1.5674   1.9903   6.5551   7.5842

          k =-0.6667-0.6667 0.1667 (   116 PWs)   bands (ev):

    -0.8534   0.4349   5.4322  10.0202

          k =-0.0833-0.5833 0.5833 (   115 PWs)   bands (ev):

    -2.3239   2.1443   5.8203   9.9858

          k =-0.5833 0.5833-0.0833 (   115 PWs)   bands (ev):

    -2.5140   3.3834   6.0285   8.1877

          k =-0.5833-0.5833 0.0833 (   115 PWs)   bands (ev):

    -2.2585   1.9025   5.2754  10.9295

          k =-0.5000 0.5000 0.0000 (   117 PWs)   bands (ev):

    -3.9359   5.7876   5.8429   8.7768

          k =-0.5000-0.5000 0.0000 (   117 PWs)   bands (ev):

    -3.8621   3.4609   5.9267  11.8918

          k = 0.0000 0.0000 0.6667 (   113 PWs)   bands (ev):

    -4.3000   6.4235   6.9910   8.9698

          k = 0.7500 0.0833-0.0833 (   116 PWs)   bands (ev):

    -3.1797   3.8810   7.7266   8.4128

          k = 0.0833-0.0833 0.7500 (   116 PWs)   bands (ev):

    -3.1554   4.8047   6.6235   8.0178

          k = 0.0833 0.0833-0.7500 (   116 PWs)   bands (ev):

    -3.1506   4.8301   6.0620   8.6090

          k =-0.1667-0.8333 0.8333 (   114 PWs)   bands (ev):

    -1.6744   2.3333   6.4285   8.1088

          k =-0.8333 0.8333-0.1667 (   114 PWs)   bands (ev):

    -1.7707   3.3436   6.5789   6.6147

          k =-0.8333-0.8333 0.1667 (   114 PWs)   bands (ev):

    -1.6829   3.2018   4.8407   8.6279

          k =-0.0833-0.7500 0.7500 (   112 PWs)   bands (ev):

    -0.0851   0.9967   5.0619   8.4091

          k =-0.7500 0.7500-0.0833 (   112 PWs)   bands (ev):

    -0.7095   2.5118   5.1833   6.9112

          k =-0.7500-0.7500 0.0833 (   112 PWs)   bands (ev):

    -0.0922   1.4569   3.9151   9.0493

          k =-0.6667 0.6667 0.0000 (   116 PWs)   bands (ev):

    -1.2465   3.3429   4.3033   7.3692

          k =-0.6667-0.6667 0.0000 (   116 PWs)   bands (ev):

    -0.6585   1.4698   3.8589   9.8055

          k = 0.0000 0.0000 0.8333 (   116 PWs)   bands (ev):

    -2.1302   3.5283   6.3127   8.1397

          k =-0.0833-0.9167 0.9167 (   115 PWs)   bands (ev):

    -0.8007   1.5791   6.9713   7.6152

          k =-0.9167 0.9167-0.0833 (   115 PWs)   bands (ev):

    -0.8902   2.2356   6.2371   7.3270

          k =-0.9167-0.9167 0.0833 (   115 PWs)   bands (ev):

    -0.8525   2.2225   5.5296   8.0628

          k =-0.8333 0.8333 0.0000 (   110 PWs)   bands (ev):

    -0.1254   1.8272   5.9962   6.4940

          k =-0.8333-0.8333 0.0000 (   110 PWs)   bands (ev):

     0.2453   1.4991   4.3152   8.3871

          k = 0.0000 0.0000-1.0000 (   116 PWs)   bands (ev):

    -0.1757   1.3045   6.0853   7.8695

          k = 0.3333 0.1667 0.0000 (   120 PWs)   bands (ev):

    -7.0955   7.4927  10.4836  14.3085

          k = 0.0000-0.3333-0.1667 (   120 PWs)   bands (ev):

    -7.0946   8.2584  10.3435  13.1432

          k = 0.1667 0.0000 0.3333 (   120 PWs)   bands (ev):

    -7.0904   8.3894  10.2578  12.7805

          k = 0.4167 0.2500-0.0833 (   119 PWs)   bands (ev):

    -6.1492   5.7990   9.1713  13.3918

          k =-0.0833-0.4167-0.2500 (   119 PWs)   bands (ev):

    -6.1483   6.0883   9.6132  12.2128

          k = 0.0833-0.4167 0.2500 (   119 PWs)   bands (ev):

    -6.1494   7.5292   7.9289  12.4391

          k = 0.2500-0.0833 0.4167 (   119 PWs)   bands (ev):

    -6.1402   7.3949   8.0214  12.2076

          k = 0.2500 0.0833-0.4167 (   119 PWs)   bands (ev):

    -6.1384   6.2516   9.5153  11.8626

          k = 0.5000 0.3333-0.1667 (   115 PWs)   bands (ev):

    -4.8387   3.6356   8.4761  12.4057

          k =-0.1667-0.5000-0.3333 (   115 PWs)   bands (ev):

    -4.8376   3.7483   9.2046  11.2234

          k = 0.1667-0.5000 0.3333 (   115 PWs)   bands (ev):

    -4.8632   4.8292   7.5085  11.8844

          k = 0.3333-0.1667 0.5000 (   115 PWs)   bands (ev):

    -4.8448   4.7015   7.7327  11.4101

          k = 0.3333 0.1667-0.5000 (   115 PWs)   bands (ev):

    -4.8305   3.8310   8.9899  11.2177

          k =-0.4167-0.5833 0.7500 (   116 PWs)   bands (ev):

    -3.2007   1.2716   8.1530  11.4854

          k = 0.7500 0.4167 0.5833 (   116 PWs)   bands (ev):

    -3.2134   1.3260   9.0610  10.4191

          k =-0.7500 0.4167-0.5833 (   116 PWs)   bands (ev):

    -3.3723   2.4020   7.2527  11.3374

          k =-0.5833 0.7500-0.4167 (   116 PWs)   bands (ev):

    -3.3516   2.3156   7.6255  10.6559

          k =-0.5833-0.7500 0.4167 (   116 PWs)   bands (ev):

    -3.2033   1.3589   8.5627  10.7919

          k =-0.3333-0.5000 0.6667 (   118 PWs)   bands (ev):

    -1.7799  -0.3843   8.1670  10.9502

          k = 0.6667 0.3333 0.5000 (   118 PWs)   bands (ev):

    -1.7882  -0.3985   9.0737  10.0490

          k =-0.6667 0.3333-0.5000 (   118 PWs)   bands (ev):

    -2.4169   1.0973   7.1521  11.2153

          k = 0.5000 0.1667 0.0000 (   120 PWs)   bands (ev):

    -5.8363   6.0599   8.9132  12.0161

          k = 0.0000-0.5000-0.1667 (   120 PWs)   bands (ev):

    -5.8378   6.7452   8.7548  11.1437

          k = 0.1667 0.0000 0.5000 (   120 PWs)   bands (ev):

    -5.8205   7.1568   8.3354  10.6628

          k = 0.5833 0.2500-0.0833 (   119 PWs)   bands (ev):

    -4.6638   4.3939   7.8062  11.0321

          k =-0.0833-0.5833-0.2500 (   119 PWs)   bands (ev):

    -4.6656   4.6459   8.3514  10.0019

          k = 0.0833-0.5833 0.2500 (   119 PWs)   bands (ev):

    -4.6803   5.9538   6.5776  10.4388

          k = 0.2500-0.0833 0.5833 (   119 PWs)   bands (ev):

    -4.6522   5.7499   6.9701   9.8457

          k = 0.2500 0.0833-0.5833 (   119 PWs)   bands (ev):

    -4.6480   5.0350   7.6272   9.9793

          k =-0.3333-0.6667 0.8333 (   115 PWs)   bands (ev):

    -3.1353   2.3973   7.2351  10.1251

          k = 0.8333 0.3333 0.6667 (   115 PWs)   bands (ev):

    -3.1465   2.4945   8.2666   8.8616

          k =-0.8333 0.3333-0.6667 (   115 PWs)   bands (ev):

    -3.2462   3.7358   5.9571   9.9874

          k =-0.6667 0.8333-0.3333 (   115 PWs)   bands (ev):

    -3.2153   3.4795   6.9090   8.9231

          k =-0.6667-0.8333 0.3333 (   115 PWs)   bands (ev):

    -3.1262   2.6848   7.0146   9.6807

          k =-0.2500-0.5833 0.7500 (   116 PWs)   bands (ev):

    -1.4464   0.4057   6.8725   9.6158

          k = 0.7500 0.2500 0.5833 (   116 PWs)   bands (ev):

    -1.4721   0.4090   7.8311   8.6196

          k =-0.7500 0.2500-0.5833 (   116 PWs)   bands (ev):

    -1.9675   1.9206   5.6480   9.8781

          k =-0.5833 0.7500-0.2500 (   116 PWs)   bands (ev):

    -1.9506   1.7936   7.0648   8.1025

          k =-0.5833-0.7500 0.2500 (   116 PWs)   bands (ev):

    -1.4611   0.5007   6.5071   9.8016

          k =-0.1667-0.5000 0.6667 (   115 PWs)   bands (ev):

    -2.0202   1.1824   6.7013   9.6778

          k = 0.6667 0.1667 0.5000 (   115 PWs)   bands (ev):

    -2.0337   1.1308   7.2494   9.2639

          k =-0.6667 0.1667-0.5000 (   115 PWs)   bands (ev):

    -2.3024   2.3898   5.4992  10.1185

          k =-0.5000 0.6667-0.1667 (   115 PWs)   bands (ev):

    -2.3421   2.4299   7.2642   7.7944

          k =-0.5000-0.6667 0.1667 (   115 PWs)   bands (ev):

    -1.9858   1.0484   6.3139  10.3925

          k =-0.0833-0.4167 0.5833 (   116 PWs)   bands (ev):

    -3.6894   3.4539   6.7059  10.2705

          k = 0.5833 0.0833 0.4167 (   116 PWs)   bands (ev):

    -3.6992   3.3270   7.0357  10.2388

          k =-0.5833 0.0833-0.4167 (   116 PWs)   bands (ev):

    -3.7364   4.4380   5.5613  10.6819

          k =-0.4167 0.5833-0.0833 (   116 PWs)   bands (ev):

    -3.7692   4.6289   7.1954   8.2626

          k =-0.4167-0.5833 0.0833 (   116 PWs)   bands (ev):

    -3.6860   3.0676   6.4616  11.3348

          k = 0.5000 0.0000 0.3333 (   114 PWs)   bands (ev):

    -5.0871   5.6593   7.2061  11.5873

          k =-0.3333 0.5000 0.0000 (   114 PWs)   bands (ev):

    -5.1077   7.1840   7.5308   9.0986

          k =-0.3333-0.5000 0.0000 (   114 PWs)   bands (ev):

    -5.0886   4.8114   7.4480  12.6558

          k = 0.6667 0.1667 0.0000 (   116 PWs)   bands (ev):

    -4.0978   4.5377   7.8078   9.6140

          k = 0.0000-0.6667-0.1667 (   116 PWs)   bands (ev):

    -4.1115   5.1119   7.6522   9.0573

          k = 0.1667 0.0000 0.6667 (   116 PWs)   bands (ev):

    -4.0775   5.8207   6.7003   8.8262

          k =-0.2500-0.7500 0.9167 (   115 PWs)   bands (ev):

    -2.7041   3.0443   6.7080   8.7305

          k = 0.9167 0.2500 0.7500 (   115 PWs)   bands (ev):

    -2.7325   3.2692   7.5408   7.6425

          k =-0.9167 0.2500-0.7500 (   115 PWs)   bands (ev):

    -2.7826   4.2427   5.6943   8.5717

          k =-0.7500 0.9167-0.2500 (   115 PWs)   bands (ev):

    -2.7372   4.2319   6.2390   7.5767

          k =-0.7500-0.9167 0.2500 (   115 PWs)   bands (ev):

    -2.7030   3.9431   5.6611   8.5332

          k =-0.1667-0.6667 0.8333 (   112 PWs)   bands (ev):

    -1.0064   1.4149   5.7695   8.3602

          k = 0.8333 0.1667 0.6667 (   112 PWs)   bands (ev):

    -1.0674   1.4974   6.3328   7.8299

          k =-0.8333 0.1667-0.6667 (   112 PWs)   bands (ev):

    -1.3764   3.0201   4.3618   8.4970

          k =-0.6667 0.8333-0.1667 (   112 PWs)   bands (ev):

    -1.3692   2.7631   6.0347   6.7257

          k =-0.6667-0.8333 0.1667 (   112 PWs)   bands (ev):

    -1.0663   1.8862   4.8895   8.7060

          k =-0.0833-0.5833 0.7500 (   114 PWs)   bands (ev):

    -0.7214   1.3043   4.9687   8.5740

          k = 0.7500 0.0833 0.5833 (   114 PWs)   bands (ev):

    -0.7343   1.2189   5.3276   8.4375

          k =-0.7500 0.0833-0.5833 (   114 PWs)   bands (ev):

    -1.0889   2.6375   3.8779   8.8151

          k =-0.5833 0.7500-0.0833 (   114 PWs)   bands (ev):

    -1.2081   2.7720   5.2584   6.9361

          k =-0.5833-0.7500 0.0833 (   114 PWs)   bands (ev):

    -0.5388   1.0706   4.4543   9.2396

          k = 0.6667 0.0000 0.5000 (   114 PWs)   bands (ev):

    -2.3079   3.1660   4.8392   9.4425

          k =-0.5000 0.6667 0.0000 (   114 PWs)   bands (ev):

    -2.4252   4.5413   4.9301   7.5305

          k =-0.5000-0.6667 0.0000 (   114 PWs)   bands (ev):

    -2.1924   2.3960   4.8755  10.1813

          k =-0.1667-0.8333 1.0000 (   115 PWs)   bands (ev):

    -1.8887   2.6261   7.0177   7.8071

          k = 1.0000 0.1667 0.8333 (   115 PWs)   bands (ev):

    -1.9465   2.9617   6.9312   7.5503

          k =-0.8333 1.0000-0.1667 (   115 PWs)   bands (ev):

    -1.9209   3.5454   5.7902   7.7071

          k =-0.0833-0.7500 0.9167 (   112 PWs)   bands (ev):

    -0.3163   1.4231   5.8031   7.4385

          k = 0.9167 0.0833 0.7500 (   112 PWs)   bands (ev):

    -0.4162   1.5796   6.0213   7.1616

          k =-0.9167 0.0833-0.7500 (   112 PWs)   bands (ev):

    -0.5802   2.0403   5.3990   7.4944

          k =-0.7500 0.9167-0.0833 (   112 PWs)   bands (ev):

    -0.6204   2.4622   5.8685   6.2441

          k =-0.7500-0.9167 0.0833 (   112 PWs)   bands (ev):

    -0.4691   2.3181   4.4369   7.8287

          k = 0.8333 0.0000 0.6667 (   109 PWs)   bands (ev):

     0.1668   1.4343   4.4544   7.8997

          k =-0.6667 0.8333 0.0000 (   109 PWs)   bands (ev):

    -0.2898   2.5450   4.8511   6.4021

          k =-0.6667-0.8333 0.0000 (   109 PWs)   bands (ev):

     0.7841   1.0475   3.5517   8.4431

          k = 0.0000 1.0000-0.1667 (   112 PWs)   bands (ev):

     0.5000   0.5000   6.9173   6.9173

          k = 0.1667 0.0000-1.0000 (   112 PWs)   bands (ev):

    -0.0344   1.5240   5.5686   7.3801

          k =-0.3333-0.6667 1.0000 (   116 PWs)   bands (ev):

    -3.3813   3.4724   6.3250   9.9595

          k = 1.0000 0.3333 0.6667 (   116 PWs)   bands (ev):

    -3.4163   4.2279   6.1685   9.2134

          k =-0.6667 1.0000-0.3333 (   116 PWs)   bands (ev):

    -3.3948   4.6380   5.6985   8.9547

          k =-0.2500-0.5833 0.9167 (   113 PWs)   bands (ev):

    -1.7748   2.0380   5.5646   8.9441

          k = 0.9167 0.2500 0.5833 (   113 PWs)   bands (ev):

    -1.8587   2.2708   6.3129   7.9395

          k =-0.9167 0.2500-0.5833 (   113 PWs)   bands (ev):

    -1.9826   3.4632   4.5845   8.6328

          k =-0.5833 0.9167-0.2500 (   113 PWs)   bands (ev):

    -1.9606   3.3036   5.1439   7.8916

          k =-0.5833-0.9167 0.2500 (   113 PWs)   bands (ev):

    -1.8337   2.5463   5.3824   8.3652

          k =-0.1667-0.5000 0.8333 (   114 PWs)   bands (ev):

    -0.4342   0.7589   5.3055   8.3515

          k = 0.8333 0.1667 0.5000 (   114 PWs)   bands (ev):

    -0.4887   0.7012   6.7096   7.0933

          k =-0.8333 0.1667-0.5000 (   114 PWs)   bands (ev):

    -1.0978   2.4993   4.2524   8.4052

          k =-0.1667-0.6667 1.0000 (   113 PWs)   bands (ev):

    -1.1954   2.1713   5.6432   7.5810

          k = 1.0000 0.1667 0.6667 (   113 PWs)   bands (ev):

    -1.3494   2.7542   5.6781   7.0981

          k =-0.6667 1.0000-0.1667 (   113 PWs)   bands (ev):

    -1.3386   3.3090   4.8610   7.0468

          k =-0.0833-0.5833 0.9167 (   111 PWs)   bands (ev):

     0.3861   1.1511   4.7860   6.9606

          k = 0.9167 0.0833 0.5833 (   111 PWs)   bands (ev):

     0.1781   1.2958   5.6158   6.3011

          k =-0.9167 0.0833-0.5833 (   111 PWs)   bands (ev):

    -0.1846   2.2247   4.3718   6.9449

          k =-0.5833 0.9167-0.0833 (   111 PWs)   bands (ev):

    -0.3080   2.7217   4.8768   5.7790

          k =-0.5833-0.9167 0.0833 (   111 PWs)   bands (ev):

     0.1561   1.7641   4.1173   7.1449

          k = 0.8333 0.0000 0.5000 (   112 PWs)   bands (ev):

    -0.5213   2.1422   4.6315   7.2625

          k =-0.5000 0.8333 0.0000 (   112 PWs)   bands (ev):

    -0.8046   3.4798   4.8308   5.6769

          k =-0.5000-0.8333 0.0000 (   112 PWs)   bands (ev):

    -0.1412   1.4808   4.2448   7.8268

          k = 0.0000 1.0000-0.3333 (   112 PWs)   bands (ev):

     0.8317   0.8317   5.8927   5.8927

          k = 0.3333 0.0000-1.0000 (   112 PWs)   bands (ev):

     0.2655   1.9886   4.5268   6.3737

          k = 0.0000 1.0000-0.5000 (   108 PWs)   bands (ev):

     1.0606   1.0606   5.4486   5.4486

!    total energy              =     -35.36107096 Ry
     Harris-Foulkes estimate   =     -35.36107102 Ry
     estimated scf accuracy    <       0.00000055 Ry

     total all-electron energy =      -150.920067 Ry

     The total energy is the sum of the following terms:

     one-electron contribution =       8.61780379 Ry
     hartree contribution      =       1.86855828 Ry
     xc contribution           =      -8.33439722 Ry
     ewald contribution        =     -25.47879239 Ry
     one-center paw contrib.   =     -12.03424342 Ry

     convergence has been achieved in   4 iterations

     Forces acting on atoms (Ry/au):

     atom    1 type  1   force =     0.00000000    0.00000000   -0.33309425
     atom    2 type  1   force =     0.00000000    0.00000000    0.33309425

     Total force =     0.471066     Total SCF correction =     0.000247

     Writing output data file diamond.save

     init_run     :      0.56s CPU      0.57s WALL (       1 calls)
     electrons    :      2.30s CPU      2.81s WALL (       1 calls)
     forces       :      0.05s CPU      0.05s WALL (       1 calls)

     Called by init_run:
     wfcinit      :      0.30s CPU      0.31s WALL (       1 calls)
     potinit      :      0.04s CPU      0.04s WALL (       1 calls)

     Called by electrons:
     c_bands      :      1.82s CPU      1.87s WALL (       4 calls)
     sum_band     :      0.31s CPU      0.32s WALL (       4 calls)
     v_of_rho     :      0.01s CPU      0.00s WALL (       5 calls)
     newd         :      0.01s CPU      0.01s WALL (       5 calls)
     mix_rho      :      0.02s CPU      0.03s WALL (       4 calls)

     Called by c_bands:
     init_us_2    :      0.12s CPU      0.13s WALL (    2800 calls)
     cegterg      :      1.65s CPU      1.71s WALL (    1120 calls)

     Called by *egterg:
     h_psi        :      1.52s CPU      1.54s WALL (    3837 calls)
     s_psi        :      0.06s CPU      0.08s WALL (    3837 calls)
     g_psi        :      0.01s CPU      0.02s WALL (    2437 calls)
     cdiaghg      :      0.16s CPU      0.17s WALL (    3557 calls)

     Called by h_psi:
     add_vuspsi   :      0.09s CPU      0.08s WALL (    3837 calls)

     General routines
     calbec       :      0.09s CPU      0.10s WALL (    5237 calls)
     fft          :      0.00s CPU      0.00s WALL (      33 calls)
     fftw         :      1.30s CPU      1.32s WALL (   33678 calls)
     davcio       :      0.01s CPU      0.03s WALL (    3920 calls)


     PAW routines
     PAW_pot      :      0.16s CPU      0.16s WALL (       5 calls)
     PAW_ddot     :      0.02s CPU      0.03s WALL (      11 calls)
     PAW_symme    :      0.00s CPU      0.00s WALL (       9 calls)

     PWSCF        :     3.80s CPU         4.96s WALL


   This run was terminated on:  14: 1: 5  26Mar2012            

=------------------------------------------------------------------------------=
   JOB DONE.
=------------------------------------------------------------------------------=
