
     Program PWSCF v.4.3.2      starts on 26Mar2012 at 14: 0:55 

     This program is part of the open-source Quantum ESPRESSO suite
     for quantum simulation of materials; please cite
         "P. Giannozzi et al., J. Phys.:Condens. Matter 21 395502 (2009);
          URL http://www.quantum-espresso.org", 
     in publications or presentations arising from this work. More details at
     http://www.quantum-espresso.org/wiki/index.php/Citing_Quantum-ESPRESSO

     Current dimensions of program PWSCF are:
     Max number of different atomic species (ntypx) = 10
     Max number of k-points (npk) =  40000
     Max angular momentum in pseudopotentials (lmaxx) =  3
     Waiting for input...
     Reading input from stdin
     warning: symmetry operation #  5 not allowed.   fractional translation:
       0.2000000  0.2000000  0.3000000  in crystal coordinates
     warning: symmetry operation #  6 not allowed.   fractional translation:
       0.2000000  0.2000000  0.3000000  in crystal coordinates
     warning: symmetry operation # 25 not allowed.   fractional translation:
       0.2000000  0.2000000  0.3000000  in crystal coordinates
     warning: symmetry operation # 26 not allowed.   fractional translation:
       0.2000000  0.2000000  0.3000000  in crystal coordinates

     G-vector sticks info
     --------------------
     sticks:   dense  smooth     PW     G-vecs:    dense   smooth      PW
     Sum         121     121     55                  941      941     259



     bravais-lattice index     =            2
     lattice parameter (alat)  =       6.7400  a.u.
     unit-cell volume          =      76.5455 (a.u.)^3
     number of atoms/cell      =            2
     number of atomic types    =            1
     number of electrons       =         8.00
     number of Kohn-Sham states=            4
     kinetic-energy cutoff     =      20.0000  Ry
     charge density cutoff     =      80.0000  Ry
     convergence threshold     =      1.0E-06
     mixing beta               =       0.7000
     number of iterations used =            8  plain     mixing
     Exchange-correlation      =  SLA  PZ   NOGX NOGC ( 1 1 0 0 0)
     EXX-fraction              =        0.00

     celldm(1)=   6.740000  celldm(2)=   0.000000  celldm(3)=   0.000000
     celldm(4)=   0.000000  celldm(5)=   0.000000  celldm(6)=   0.000000

     crystal axes: (cart. coord. in units of alat)
               a(1) = (  -0.500000   0.000000   0.500000 )  
               a(2) = (   0.000000   0.500000   0.500000 )  
               a(3) = (  -0.500000   0.500000   0.000000 )  

     reciprocal axes: (cart. coord. in units 2 pi/alat)
               b(1) = ( -1.000000 -1.000000  1.000000 )  
               b(2) = (  1.000000  1.000000  1.000000 )  
               b(3) = ( -1.000000  1.000000 -1.000000 )  


     PseudoPot. # 1 for  C read from file:
     /home/sam/Documents/espresso-4.3.2/pseudo/C.pz-kjpaw.UPF
     MD5 check sum: 414e6e825ae75add557e798061b49a04
     Pseudo is Projector augmented-wave + core cor, Zval =  4.0
     Generated using "atomic" code by A. Dal Corso (espresso distribution)
     Shape of augmentation charge: BESSEL
     Using radial grid of 1073 points,  4 beta functions with: 
                l(1) =   0
                l(2) =   0
                l(3) =   1
                l(4) =   1
     Q(r) pseudized with 0 coefficients 


     atomic species   valence    mass     pseudopotential
        C              4.00    12.01070      C( 1.00)

      4 Sym.Ops. (no inversion)


   Cartesian axes

     site n.     atom                  positions (alat units)
         1           C   tau(   1) = (   0.0000000   0.0000000   0.0500000  )
         2           C   tau(   2) = (   0.2500000   0.2500000   0.2500000  )

     number of k points=    95
                       cart. coord. in units 2pi/alat
        k(    1) = (   0.0000000   0.0000000   0.0000000), wk =   0.0039063
        k(    2) = (  -0.1250000   0.1250000  -0.1250000), wk =   0.0156250
        k(    3) = (  -0.2500000   0.2500000  -0.2500000), wk =   0.0156250
        k(    4) = (  -0.3750000   0.3750000  -0.3750000), wk =   0.0156250
        k(    5) = (   0.5000000  -0.5000000   0.5000000), wk =   0.0078125
        k(    6) = (   0.0000000   0.2500000   0.0000000), wk =   0.0156250
        k(    7) = (  -0.1250000   0.3750000  -0.1250000), wk =   0.0312500
        k(    8) = (  -0.2500000   0.5000000  -0.2500000), wk =   0.0312500
        k(    9) = (   0.6250000  -0.3750000   0.6250000), wk =   0.0312500
        k(   10) = (   0.5000000  -0.2500000   0.5000000), wk =   0.0312500
        k(   11) = (   0.3750000  -0.1250000   0.3750000), wk =   0.0312500
        k(   12) = (   0.2500000   0.0000000   0.2500000), wk =   0.0312500
        k(   13) = (   0.0000000   0.5000000   0.0000000), wk =   0.0156250
        k(   14) = (  -0.1250000   0.6250000  -0.1250000), wk =   0.0312500
        k(   15) = (   0.7500000  -0.2500000   0.7500000), wk =   0.0312500
        k(   16) = (   0.6250000  -0.1250000   0.6250000), wk =   0.0312500
        k(   17) = (   0.5000000   0.0000000   0.5000000), wk =   0.0312500
        k(   18) = (   0.0000000   0.7500000   0.0000000), wk =   0.0156250
        k(   19) = (   0.8750000  -0.1250000   0.8750000), wk =   0.0312500
        k(   20) = (   0.7500000   0.0000000   0.7500000), wk =   0.0312500
        k(   21) = (   0.0000000  -1.0000000   0.0000000), wk =   0.0078125
        k(   22) = (  -0.2500000   0.5000000   0.0000000), wk =   0.0156250
        k(   23) = (   0.6250000  -0.3750000   0.8750000), wk =   0.0312500
        k(   24) = (   0.5000000  -0.2500000   0.7500000), wk =   0.0312500
        k(   25) = (   0.7500000  -0.2500000   1.0000000), wk =   0.0156250
        k(   26) = (   0.6250000  -0.1250000   0.8750000), wk =   0.0312500
        k(   27) = (   0.5000000   0.0000000   0.7500000), wk =   0.0312500
        k(   28) = (  -0.2500000  -1.0000000   0.0000000), wk =   0.0156250
        k(   29) = (  -0.5000000  -1.0000000   0.0000000), wk =   0.0156250
        k(   30) = (   0.1250000   0.1250000  -0.1250000), wk =   0.0156250
        k(   31) = (   0.2500000   0.2500000  -0.2500000), wk =   0.0156250
        k(   32) = (   0.3750000   0.3750000  -0.3750000), wk =   0.0156250
        k(   33) = (  -0.5000000  -0.5000000   0.5000000), wk =   0.0078125
        k(   34) = (   0.0000000   0.0000000   0.2500000), wk =   0.0078125
        k(   35) = (   0.3750000   0.1250000  -0.1250000), wk =   0.0312500
        k(   36) = (   0.1250000  -0.1250000   0.3750000), wk =   0.0156250
        k(   37) = (   0.1250000   0.1250000  -0.3750000), wk =   0.0156250
        k(   38) = (   0.5000000   0.2500000  -0.2500000), wk =   0.0312500
        k(   39) = (   0.2500000  -0.2500000   0.5000000), wk =   0.0156250
        k(   40) = (   0.2500000   0.2500000  -0.5000000), wk =   0.0156250
        k(   41) = (  -0.3750000  -0.6250000   0.6250000), wk =   0.0312500
        k(   42) = (  -0.6250000   0.6250000  -0.3750000), wk =   0.0156250
        k(   43) = (  -0.6250000  -0.6250000   0.3750000), wk =   0.0156250
        k(   44) = (  -0.2500000  -0.5000000   0.5000000), wk =   0.0312500
        k(   45) = (  -0.5000000   0.5000000  -0.2500000), wk =   0.0156250
        k(   46) = (  -0.5000000  -0.5000000   0.2500000), wk =   0.0156250
        k(   47) = (  -0.1250000  -0.3750000   0.3750000), wk =   0.0312500
        k(   48) = (  -0.3750000   0.3750000  -0.1250000), wk =   0.0156250
        k(   49) = (  -0.3750000  -0.3750000   0.1250000), wk =   0.0156250
        k(   50) = (  -0.2500000   0.2500000   0.0000000), wk =   0.0078125
        k(   51) = (  -0.2500000  -0.2500000   0.0000000), wk =   0.0078125
        k(   52) = (   0.0000000   0.0000000   0.5000000), wk =   0.0078125
        k(   53) = (   0.6250000   0.1250000  -0.1250000), wk =   0.0312500
        k(   54) = (   0.1250000  -0.1250000   0.6250000), wk =   0.0156250
        k(   55) = (   0.1250000   0.1250000  -0.6250000), wk =   0.0156250
        k(   56) = (  -0.2500000  -0.7500000   0.7500000), wk =   0.0312500
        k(   57) = (  -0.7500000   0.7500000  -0.2500000), wk =   0.0156250
        k(   58) = (  -0.7500000  -0.7500000   0.2500000), wk =   0.0156250
        k(   59) = (  -0.1250000  -0.6250000   0.6250000), wk =   0.0312500
        k(   60) = (  -0.6250000   0.6250000  -0.1250000), wk =   0.0156250
        k(   61) = (  -0.6250000  -0.6250000   0.1250000), wk =   0.0156250
        k(   62) = (  -0.5000000   0.5000000   0.0000000), wk =   0.0078125
        k(   63) = (  -0.5000000  -0.5000000   0.0000000), wk =   0.0078125
        k(   64) = (   0.0000000   0.0000000   0.7500000), wk =   0.0078125
        k(   65) = (  -0.1250000  -0.8750000   0.8750000), wk =   0.0312500
        k(   66) = (  -0.8750000   0.8750000  -0.1250000), wk =   0.0156250
        k(   67) = (  -0.8750000  -0.8750000   0.1250000), wk =   0.0156250
        k(   68) = (  -0.7500000   0.7500000   0.0000000), wk =   0.0078125
        k(   69) = (  -0.7500000  -0.7500000   0.0000000), wk =   0.0078125
        k(   70) = (   0.0000000   0.0000000  -1.0000000), wk =   0.0039063
        k(   71) = (   0.5000000   0.2500000   0.0000000), wk =   0.0156250
        k(   72) = (   0.0000000  -0.5000000  -0.2500000), wk =   0.0312500
        k(   73) = (   0.2500000   0.0000000   0.5000000), wk =   0.0312500
        k(   74) = (  -0.3750000  -0.6250000   0.8750000), wk =   0.0312500
        k(   75) = (   0.8750000   0.3750000   0.6250000), wk =   0.0312500
        k(   76) = (  -0.8750000   0.3750000  -0.6250000), wk =   0.0312500
        k(   77) = (  -0.6250000   0.8750000  -0.3750000), wk =   0.0312500
        k(   78) = (  -0.6250000  -0.8750000   0.3750000), wk =   0.0312500
        k(   79) = (  -0.2500000  -0.5000000   0.7500000), wk =   0.0312500
        k(   80) = (   0.7500000   0.2500000   0.5000000), wk =   0.0156250
        k(   81) = (  -0.7500000   0.2500000  -0.5000000), wk =   0.0156250
        k(   82) = (  -0.2500000  -0.7500000   1.0000000), wk =   0.0156250
        k(   83) = (   1.0000000   0.2500000   0.7500000), wk =   0.0312500
        k(   84) = (  -0.7500000   1.0000000  -0.2500000), wk =   0.0312500
        k(   85) = (  -0.1250000  -0.6250000   0.8750000), wk =   0.0312500
        k(   86) = (   0.8750000   0.1250000   0.6250000), wk =   0.0312500
        k(   87) = (  -0.8750000   0.1250000  -0.6250000), wk =   0.0312500
        k(   88) = (  -0.6250000   0.8750000  -0.1250000), wk =   0.0312500
        k(   89) = (  -0.6250000  -0.8750000   0.1250000), wk =   0.0312500
        k(   90) = (   0.7500000   0.0000000   0.5000000), wk =   0.0312500
        k(   91) = (  -0.5000000   0.7500000   0.0000000), wk =   0.0156250
        k(   92) = (  -0.5000000  -0.7500000   0.0000000), wk =   0.0156250
        k(   93) = (   0.0000000   1.0000000  -0.2500000), wk =   0.0156250
        k(   94) = (   0.2500000   0.0000000  -1.0000000), wk =   0.0156250
        k(   95) = (   0.0000000   1.0000000  -0.5000000), wk =   0.0078125

     Dense  grid:      941 G-vectors     FFT dimensions: (  15,  15,  15)

     Largest allocated arrays     est. size (Mb)     dimensions
        Kohn-Sham Wavefunctions         0.01 Mb     (    125,    4)
        NL pseudopotentials             0.03 Mb     (    125,   16)
        Each V/rho on FFT grid          0.05 Mb     (   3375)
        Each G-vector array             0.01 Mb     (    941)
        G-vector shells                 0.00 Mb     (     33)
     Largest temporary arrays     est. size (Mb)     dimensions
        Auxiliary wavefunctions         0.03 Mb     (    125,   16)
        Each subspace H/S matrix        0.00 Mb     (  16,  16)
        Each <psi_i|beta_j> matrix      0.00 Mb     (     16,    4)
        Arrays for rho mixing           0.41 Mb     (   3375,   8)

     Check: negative/imaginary core charge=   -0.000687    0.000000

     Initial potential from superposition of free atoms

     starting charge    7.99993, renormalised to    8.00000
     Starting wfc are    8 atomic wfcs

     total cpu time spent up to now is        0.6 secs

     per-process dynamical memory:     2.7 Mb

     Self-consistent Calculation

     iteration #  1     ecut=    20.00 Ry     beta=0.70
     Davidson diagonalization with overlap
     ethr =  1.00E-02,  avg # of iterations =  2.0

     total cpu time spent up to now is        0.9 secs

     total energy              =     -35.34822502 Ry
     Harris-Foulkes estimate   =     -35.40396652 Ry
     estimated scf accuracy    <       0.10684552 Ry

     iteration #  2     ecut=    20.00 Ry     beta=0.70
     Davidson diagonalization with overlap
     ethr =  1.34E-03,  avg # of iterations =  1.9

     total cpu time spent up to now is        1.1 secs

     total energy              =     -35.35681623 Ry
     Harris-Foulkes estimate   =     -35.35774407 Ry
     estimated scf accuracy    <       0.00214858 Ry

     iteration #  3     ecut=    20.00 Ry     beta=0.70
     Davidson diagonalization with overlap
     ethr =  2.69E-05,  avg # of iterations =  2.1

     total cpu time spent up to now is        1.5 secs

     total energy              =     -35.35715776 Ry
     Harris-Foulkes estimate   =     -35.35718714 Ry
     estimated scf accuracy    <       0.00005270 Ry

     iteration #  4     ecut=    20.00 Ry     beta=0.70
     Davidson diagonalization with overlap
     ethr =  6.59E-07,  avg # of iterations =  2.6

     total cpu time spent up to now is        1.7 secs

     End of self-consistent calculation

          k = 0.0000 0.0000 0.0000 (   113 PWs)   bands (ev):

    -8.3740  10.7161  14.0652  16.2451

          k =-0.1250 0.1250-0.1250 (   116 PWs)   bands (ev):

    -7.9396  10.3856  11.7625  14.4474

          k =-0.2500 0.2500-0.2500 (   117 PWs)   bands (ev):

    -6.6553   7.3182   9.6798  13.3208

          k =-0.3750 0.3750-0.3750 (   114 PWs)   bands (ev):

    -4.6061   3.1023   9.1514  12.6446

          k = 0.5000-0.5000 0.5000 (   120 PWs)   bands (ev):

    -2.8642   0.5711   8.6917  12.1506

          k = 0.0000 0.2500 0.0000 (   117 PWs)   bands (ev):

    -7.7954   9.5740  12.2164  14.1147

          k =-0.1250 0.3750-0.1250 (   120 PWs)   bands (ev):

    -6.7993   8.9682   9.0846  12.1134

          k =-0.2500 0.5000-0.2500 (   112 PWs)   bands (ev):

    -4.9851   4.8233   8.4661  11.3889

          k = 0.6250-0.3750 0.6250 (   117 PWs)   bands (ev):

    -2.8338   1.3451   7.7756  11.1851

          k = 0.5000-0.2500 0.5000 (   114 PWs)   bands (ev):

    -3.4795   2.2823   7.5897  11.7122

          k = 0.3750-0.1250 0.3750 (   116 PWs)   bands (ev):

    -5.6609   6.0462   7.8174  12.5970

          k = 0.2500 0.0000 0.2500 (   117 PWs)   bands (ev):

    -7.2197   8.4436  10.3641  13.5715

          k = 0.0000 0.5000 0.0000 (   125 PWs)   bands (ev):

    -6.0970   7.1745   9.5023  10.8566

          k =-0.1250 0.6250-0.1250 (   118 PWs)   bands (ev):

    -4.5665   6.2864   7.0612   9.3988

          k = 0.7500-0.2500 0.7500 (   113 PWs)   bands (ev):

    -2.4469   3.3096   5.5093   9.2392

          k = 0.6250-0.1250 0.6250 (   114 PWs)   bands (ev):

    -1.8161   2.4252   4.7433   9.8616

          k = 0.5000 0.0000 0.5000 (   117 PWs)   bands (ev):

    -3.8850   4.3583   5.6990  10.8855

          k = 0.0000 0.7500 0.0000 (   113 PWs)   bands (ev):

    -3.3015   4.2748   7.9619   8.3827

          k = 0.8750-0.1250 0.8750 (   114 PWs)   bands (ev):

    -1.3946   2.6548   6.0526   7.8796

          k = 0.7500 0.0000 0.7500 (   110 PWs)   bands (ev):

     0.0511   1.4581   4.3643   8.4375

          k = 0.0000-1.0000 0.0000 (   116 PWs)   bands (ev):

     0.3358   0.3358   7.4224   7.4224

          k =-0.2500 0.5000 0.0000 (   120 PWs)   bands (ev):

    -5.5444   7.9469   8.3737   8.6575

          k = 0.6250-0.3750 0.8750 (   115 PWs)   bands (ev):

    -3.5560   4.1731   7.5125   8.0494

          k = 0.5000-0.2500 0.7500 (   118 PWs)   bands (ev):

    -1.8815   1.6385   6.6828   8.4912

          k = 0.7500-0.2500 1.0000 (   116 PWs)   bands (ev):

    -2.8619   4.9386   6.5754   6.7631

          k = 0.6250-0.1250 0.8750 (   111 PWs)   bands (ev):

    -0.8694   3.0153   4.4425   7.0697

          k = 0.5000 0.0000 0.7500 (   113 PWs)   bands (ev):

    -1.4169   2.8707   4.3390   8.2321

          k =-0.2500-1.0000 0.0000 (   108 PWs)   bands (ev):

     0.4440   0.9427   6.2226   6.6599

          k =-0.5000-1.0000 0.0000 (   108 PWs)   bands (ev):

     0.5427   2.0058   4.4217   5.8451

          k = 0.1250 0.1250-0.1250 (   116 PWs)   bands (ev):

    -7.9396   9.2109  12.8549  14.8509

          k = 0.2500 0.2500-0.2500 (   117 PWs)   bands (ev):

    -6.6526   6.0657  11.2377  13.4629

          k = 0.3750 0.3750-0.3750 (   114 PWs)   bands (ev):

    -4.5316   2.1393  10.2135  12.6302

          k =-0.5000-0.5000 0.5000 (   120 PWs)   bands (ev):

    -2.2497  -0.8445   9.7334  12.0846

          k = 0.0000 0.0000 0.2500 (   117 PWs)   bands (ev):

    -7.7939   9.7202  12.4833  13.1668

          k = 0.3750 0.1250-0.1250 (   120 PWs)   bands (ev):

    -6.7960   6.9820  10.5673  13.1650

          k = 0.1250-0.1250 0.3750 (   120 PWs)   bands (ev):

    -6.7923   8.7549   8.8220  12.5401

          k = 0.1250 0.1250-0.3750 (   120 PWs)   bands (ev):

    -6.7864   7.3106  10.9784  11.7608

          k = 0.5000 0.2500-0.2500 (   112 PWs)   bands (ev):

    -4.9579   3.6777   9.5679  11.8354

          k = 0.2500-0.2500 0.5000 (   112 PWs)   bands (ev):

    -4.9673   4.6640   8.4522  11.4397

          k = 0.2500 0.2500-0.5000 (   112 PWs)   bands (ev):

    -4.9456   3.8089   9.6870  11.1829

          k =-0.3750-0.6250 0.6250 (   117 PWs)   bands (ev):

    -2.4500   0.0833   9.0351  10.9772

          k =-0.6250 0.6250-0.3750 (   117 PWs)   bands (ev):

    -2.8113   1.2668   8.4323  10.3450

          k =-0.6250-0.6250 0.3750 (   117 PWs)   bands (ev):

    -2.4466   0.1173   8.5292  11.3105

          k =-0.2500-0.5000 0.5000 (   114 PWs)   bands (ev):

    -3.3245   1.2842   8.9804  11.1142

          k =-0.5000 0.5000-0.2500 (   114 PWs)   bands (ev):

    -3.5033   2.3407   8.8961   9.8440

          k =-0.5000-0.5000 0.2500 (   114 PWs)   bands (ev):

    -3.3103   1.2012   8.2754  12.1097

          k =-0.1250-0.3750 0.3750 (   116 PWs)   bands (ev):

    -5.6532   4.9254   9.4158  12.1058

          k =-0.3750 0.3750-0.1250 (   116 PWs)   bands (ev):

    -5.6713   6.1949   9.6168  10.0676

          k =-0.3750-0.3750 0.1250 (   116 PWs)   bands (ev):

    -5.6624   4.7029   8.7704  13.5404

          k =-0.2500 0.2500 0.0000 (   117 PWs)   bands (ev):

    -7.2249  10.2480  10.2994  11.2665

          k =-0.2500-0.2500 0.0000 (   117 PWs)   bands (ev):

    -7.2237   7.5939  10.5549  15.0777

          k = 0.0000 0.0000 0.5000 (   125 PWs)   bands (ev):

    -6.0773   7.7543   8.9727  10.1909

          k = 0.6250 0.1250-0.1250 (   118 PWs)   bands (ev):

    -4.5508   4.8004   8.3929   9.7813

          k = 0.1250-0.1250 0.6250 (   118 PWs)   bands (ev):

    -4.5325   6.0719   7.2630   9.0374

          k = 0.1250 0.1250-0.6250 (   118 PWs)   bands (ev):

    -4.5269   5.5460   7.4283   9.4669

          k =-0.2500-0.7500 0.7500 (   113 PWs)   bands (ev):

    -2.2492   1.8522   7.1825   9.0175

          k =-0.7500 0.7500-0.2500 (   113 PWs)   bands (ev):

    -2.4057   2.9621   7.2823   7.4694

          k =-0.7500-0.7500 0.2500 (   113 PWs)   bands (ev):

    -2.2347   2.1803   6.0389   9.5477

          k =-0.1250-0.6250 0.6250 (   114 PWs)   bands (ev):

    -1.4958   1.1163   6.0254   9.6155

          k =-0.6250 0.6250-0.1250 (   114 PWs)   bands (ev):

    -1.8905   2.4726   6.2348   7.9734

          k =-0.6250-0.6250 0.1250 (   114 PWs)   bands (ev):

    -1.4100   1.0043   5.2736  10.4808

          k =-0.5000 0.5000 0.0000 (   117 PWs)   bands (ev):

    -3.9376   5.7860   5.8419   8.7739

          k =-0.5000-0.5000 0.0000 (   117 PWs)   bands (ev):

    -3.8636   3.4581   5.9254  11.8901

          k = 0.0000 0.0000 0.7500 (   113 PWs)   bands (ev):

    -3.2612   4.9556   6.6063   8.4990

          k =-0.1250-0.8750 0.8750 (   114 PWs)   bands (ev):

    -1.2759   2.0920   6.6283   7.8390

          k =-0.8750 0.8750-0.1250 (   114 PWs)   bands (ev):

    -1.3557   2.8888   6.4206   6.8615

          k =-0.8750-0.8750 0.1250 (   114 PWs)   bands (ev):

    -1.2955   2.8762   5.0359   8.3005

          k =-0.7500 0.7500 0.0000 (   110 PWs)   bands (ev):

    -0.3878   2.4742   4.8093   6.9388

          k =-0.7500-0.7500 0.0000 (   110 PWs)   bands (ev):

     0.7724   0.9405   3.5183   8.9975

          k = 0.0000 0.0000-1.0000 (   116 PWs)   bands (ev):

    -0.1783   1.3037   6.0828   7.8681

          k = 0.5000 0.2500 0.0000 (   120 PWs)   bands (ev):

    -5.5339   5.3779   8.1795  12.3220

          k = 0.0000-0.5000-0.2500 (   120 PWs)   bands (ev):

    -5.5342   6.1972   8.0172  11.3095

          k = 0.2500 0.0000 0.5000 (   120 PWs)   bands (ev):

    -5.5182   6.5054   7.6755  10.9599

          k =-0.3750-0.6250 0.8750 (   115 PWs)   bands (ev):

    -3.4529   2.7532   6.9047  10.7501

          k = 0.8750 0.3750 0.6250 (   115 PWs)   bands (ev):

    -3.4693   2.9238   7.6775   9.5773

          k =-0.8750 0.3750-0.6250 (   115 PWs)   bands (ev):

    -3.5305   4.0727   5.8623  10.3530

          k =-0.6250 0.8750-0.3750 (   115 PWs)   bands (ev):

    -3.5122   3.8811   6.3958   9.6720

          k =-0.6250-0.8750 0.3750 (   115 PWs)   bands (ev):

    -3.4506   3.0670   7.0338   9.8587

          k =-0.2500-0.5000 0.7500 (   118 PWs)   bands (ev):

    -1.2207   0.0886   6.6935   9.7282

          k = 0.7500 0.2500 0.5000 (   118 PWs)   bands (ev):

    -1.2403   0.0533   8.1616   8.2876

          k =-0.7500 0.2500-0.5000 (   118 PWs)   bands (ev):

    -1.8802   1.7026   5.6359   9.8989

          k =-0.2500-0.7500 1.0000 (   116 PWs)   bands (ev):

    -2.7620   3.2448   6.6735   8.6331

          k = 1.0000 0.2500 0.7500 (   116 PWs)   bands (ev):

    -2.8155   3.8532   6.5765   8.0770

          k =-0.7500 1.0000-0.2500 (   116 PWs)   bands (ev):

    -2.7772   4.4424   5.7248   7.9557

          k =-0.1250-0.6250 0.8750 (   111 PWs)   bands (ev):

    -0.3290   1.2692   5.2420   7.6901

          k = 0.8750 0.1250 0.6250 (   111 PWs)   bands (ev):

    -0.4402   1.3691   5.9474   7.0533

          k =-0.8750 0.1250-0.6250 (   111 PWs)   bands (ev):

    -0.7971   2.7327   4.1916   7.7775

          k =-0.6250 0.8750-0.1250 (   111 PWs)   bands (ev):

    -0.8359   2.7581   5.4397   6.1886

          k =-0.6250-0.8750 0.1250 (   111 PWs)   bands (ev):

    -0.4410   1.8137   4.4112   7.9365

          k = 0.7500 0.0000 0.5000 (   113 PWs)   bands (ev):

    -1.4352   2.6497   4.6329   8.3909

          k =-0.5000 0.7500 0.0000 (   113 PWs)   bands (ev):

    -1.6190   4.0134   4.7391   6.6600

          k =-0.5000-0.7500 0.0000 (   113 PWs)   bands (ev):

    -1.2234   1.9308   4.4822   9.0200

          k = 0.0000 1.0000-0.2500 (   108 PWs)   bands (ev):

     0.6692   0.6692   6.4873   6.4873

          k = 0.2500 0.0000-1.0000 (   108 PWs)   bands (ev):

     0.1102   1.7498   5.1688   6.9556

          k = 0.0000 1.0000-0.5000 (   108 PWs)   bands (ev):

     1.0583   1.0583   5.4476   5.4476

!    total energy              =     -35.35717562 Ry
     Harris-Foulkes estimate   =     -35.35717579 Ry
     estimated scf accuracy    <       0.00000061 Ry

     total all-electron energy =      -150.916172 Ry

     The total energy is the sum of the following terms:

     one-electron contribution =       8.62164622 Ry
     hartree contribution      =       1.86773713 Ry
     xc contribution           =      -8.33386327 Ry
     ewald contribution        =     -25.47879239 Ry
     one-center paw contrib.   =     -12.03390331 Ry

     convergence has been achieved in   4 iterations

     Forces acting on atoms (Ry/au):

     atom    1 type  1   force =     0.00000000    0.00000000   -0.33619925
     atom    2 type  1   force =     0.00000000    0.00000000    0.33619925

     Total force =     0.475458     Total SCF correction =     0.000238

     Writing output data file diamond.save

     init_run     :      0.36s CPU      0.37s WALL (       1 calls)
     electrons    :      0.89s CPU      1.11s WALL (       1 calls)
     forces       :      0.02s CPU      0.02s WALL (       1 calls)

     Called by init_run:
     wfcinit      :      0.10s CPU      0.10s WALL (       1 calls)
     potinit      :      0.04s CPU      0.03s WALL (       1 calls)

     Called by electrons:
     c_bands      :      0.62s CPU      0.62s WALL (       4 calls)
     sum_band     :      0.11s CPU      0.11s WALL (       4 calls)
     v_of_rho     :      0.00s CPU      0.00s WALL (       5 calls)
     newd         :      0.00s CPU      0.01s WALL (       5 calls)
     mix_rho      :      0.03s CPU      0.03s WALL (       4 calls)

     Called by c_bands:
     init_us_2    :      0.02s CPU      0.04s WALL (     950 calls)
     cegterg      :      0.57s CPU      0.57s WALL (     380 calls)

     Called by *egterg:
     h_psi        :      0.51s CPU      0.51s WALL (    1289 calls)
     s_psi        :      0.02s CPU      0.03s WALL (    1289 calls)
     g_psi        :      0.01s CPU      0.01s WALL (     814 calls)
     cdiaghg      :      0.06s CPU      0.06s WALL (    1194 calls)

     Called by h_psi:
     add_vuspsi   :      0.02s CPU      0.03s WALL (    1289 calls)

     General routines
     calbec       :      0.04s CPU      0.03s WALL (    1764 calls)
     fft          :      0.00s CPU      0.00s WALL (      33 calls)
     fftw         :      0.43s CPU      0.44s WALL (   11388 calls)
     davcio       :      0.00s CPU      0.01s WALL (    1330 calls)


     PAW routines
     PAW_pot      :      0.16s CPU      0.15s WALL (       5 calls)
     PAW_ddot     :      0.03s CPU      0.03s WALL (      11 calls)
     PAW_symme    :      0.00s CPU      0.00s WALL (       9 calls)

     PWSCF        :     1.76s CPU         2.10s WALL


   This run was terminated on:  14: 0:57  26Mar2012            

=------------------------------------------------------------------------------=
   JOB DONE.
=------------------------------------------------------------------------------=
