LAMMPS (29 Jan 2012)
# Deformation and stress-strain curve for Au nanowire
# Basic settings
units metal
atom_style atomic
boundary m m p
# Geometry
lattice fcc 4.08 origin 0 0 0 orient z 1 1 0 orient x 0 0 -1 orient y -1 1 0
Lattice spacing in x,y,z = 4.08 5.76999 5.76999
region box block 0 10 0 5 0 40 units lattice side in
create_box 1 box
Created orthogonal box = (0 0 0) to (40.8 28.85 230.8)
  1 by 1 by 4 MPI processor grid
create_atoms 1 box
Created 16310 atoms
region 1  prism 5.1 10.0 0 5 -1 1000 10 0 0
region 2  prism -1.0 4.9 0 5 -1 1000 -10 0 0
region 3  prism 14.9 20.0 0 5 -1 1000 -10 0 0
region 4  prism -20 -4.5 0 5 -1 1000 10 0 0
group del1 region 1
1600 atoms in group del1
group del2 region 2
2000 atoms in group del2
group del3 region 3
2155 atoms in group del3
group del4 region 4
2586 atoms in group del4
##### Trim corners
delete_atoms group del1
Deleted 1600 atoms, new total = 14710
delete_atoms group del2
Deleted 2000 atoms, new total = 12710
delete_atoms group del3
Deleted 2155 atoms, new total = 10555
delete_atoms group del4
Deleted 2555 atoms, new total = 8000
# Specify inter-atomic potential
pair_style eam
pair_coeff * * Au_u3.eam 
neighbor 1.5 bin
neigh_modify every 1 delay 1
# Thermal equilibrium at 300K
velocity all create 300 20199349 dist gaussian
velocity all zero linear
velocity all zero angular
thermo 200
thermo_style custom step atoms temp pe lx ly lz pzz press
thermo_modify lost warn norm yes flush yes
timestep 0.005 #ps
#dump 1 all cfg 20000 initialpos.*.cfg id type xs ys zs # Visualize with AtomEye
#dump 1 all custom 20000 pos.dump id type x y z
#fix 1 all npt temp 300.0 300.0 10.0 aniso NULL NULL NULL NULL 0.0 0.0 10.0 drag 1.0
fix 1 all npt temp 300.0 300.0 10.0 z 0.0 0.0 10.0 drag 2.0
run 20000
Memory usage per processor = 2.24444 Mbytes
Step Atoms Temp PotEng Lx Ly Lz Pzz Press 
       0     8000    299.97374   -3.7767455         40.8    28.850057    230.79965   -24030.671   -20049.419 
     200     8000    205.03165   -3.7649656         40.8    28.849957    227.94236    1307.3738   -1160.4292 
     400     8000    212.18841   -3.7660277         40.8    28.849957    229.14491    237.85764   -250.93648 
     600     8000    210.20825   -3.7655392         40.8    28.928979    230.09797   -5740.6733    -4237.219 
     800     8000    215.13252   -3.7661031         40.8    28.849957    228.29947    1415.8366    760.04325 
    1000     8000    217.43575   -3.7662283         40.8    28.851268    228.03036    2731.7681    2621.9451 
    1200     8000    216.69489   -3.7659663         40.8    28.849957    228.38681    3048.6761    3069.0152 
    1400     8000    217.12325    -3.765836         40.8    28.881083    229.17958    2564.1166    2985.0266 
    1600     8000    215.64686   -3.7654633         40.8    28.901857    229.29785    1579.0088    2330.9276 
    1800     8000    216.67213   -3.7654189         40.8    28.849957    228.49262    2079.9406    1882.5176 
    2000     8000     218.8937   -3.7655035         40.8    28.894391    228.39677    1174.1354    1026.9972 
    2200     8000     215.2857   -3.7648447         40.8    29.077433     228.6689    -296.6607    -466.9536 
    2400     8000    217.91195   -3.7649872         40.8    28.849957     228.9634   -1089.4464   -1327.1325 
    2600     8000     217.7426   -3.7647744         40.8    28.921471    229.30032   -1791.3783   -1380.3111 
    2800     8000    219.29734    -3.764791         40.8    28.849957    228.92728   -1319.7687   -1425.3423 
    3000     8000    218.65078   -3.7645043         40.8    28.949039    228.70247   -1309.3454   -1494.9396 
    3200     8000    216.50627   -3.7640347         40.8    28.884662    228.64208    -1247.971   -1491.7229 
    3400     8000     219.9195   -3.7642975         40.8    28.860593    228.76104   -321.23774   -598.42133 
    3600     8000    222.79825   -3.7644661         40.8    28.966985    229.07074   -539.74818   -355.99218 
    3800     8000    224.78234   -3.7645254         40.8    28.938764    229.01298   -388.04894   -311.58357 
    4000     8000    222.85585   -3.7640839         40.8    28.960595    228.71039    67.241049    29.523543 
    4200     8000     222.6333    -3.763868         40.8     28.87419      228.563    1331.5782    996.38157 
    4400     8000     225.0546   -3.7639882         40.8    29.096105    228.89426    584.77355    831.26916 
    4600     8000    223.81042   -3.7636362         40.8    28.978104    228.86804    1137.9502    1206.3819 
    4800     8000    228.20012   -3.7640105         40.8    28.885356    228.84916    1098.2709    1081.0392 
    5000     8000    227.79001   -3.7637742         40.8    29.030295    228.84087    542.20657    743.99703 
    5200     8000    229.69567   -3.7638253         40.8    28.891777    228.63696    918.04882    688.30909 
    5400     8000    229.55022   -3.7636178         40.8    28.849957    228.92387   -64.808631    64.908107 
    5600     8000    228.97451   -3.7633598         40.8    28.849957    228.88023   -314.76147   -328.70106 
    5800     8000    230.42138   -3.7633546         40.8    28.860631    228.88595   -787.38055   -756.18034 
    6000     8000    232.68389   -3.7634597         40.8    28.929678    228.87021   -773.61524   -801.99837 
    6200     8000    229.20656    -3.762822         40.8     28.92528    228.84311   -835.33901   -986.93551 
    6400     8000    231.31671    -3.762909         40.8     28.95554    228.90133   -530.19931   -645.51867 
    6600     8000    234.41789   -3.7631269         40.8    28.887735    228.97867   -361.37164   -328.62561 
    6800     8000    230.05104   -3.7623741         40.8    28.849957    228.96555   -30.277283    96.107736 
    7000     8000    234.31445   -3.7627419         40.8    28.926367    228.78331    136.40411    106.59966 
    7200     8000    234.99889   -3.7626474         40.8    28.861402    228.79771    420.41018    512.96631 
    7400     8000    233.99195   -3.7623338         40.8    28.857367    228.81567    753.59464    713.94442 
    7600     8000    239.82546   -3.7629058         40.8    28.893193    228.87833    245.98533    317.88981 
    7800     8000      238.481   -3.7625498         40.8    28.916859    228.86959     362.8373    435.58819 
    8000     8000    237.35894    -3.762224         40.8    28.974784    228.83847   -39.717193   -36.480516 
    8200     8000    237.79318   -3.7620997         40.8    28.876444    228.80018     193.6372    204.81267 
    8400     8000     237.0722   -3.7618263         40.8    28.873574     228.8368    130.02515   -15.686268 
    8600     8000    237.20016   -3.7616646         40.8     29.09603    228.92745   -364.12808   -308.74264 
    8800     8000    240.89678   -3.7619654         40.8    28.863583    228.84741    196.78415    72.101856 
    9000     8000    241.72347   -3.7618944         40.8    28.871125     228.8864   -246.09791   -341.97062 
    9200     8000    240.92447   -3.7616151         40.8    28.849957    228.99953   -511.55574   -485.51403 
    9400     8000    240.34779   -3.7613649         40.8    28.849957     228.9543   -8.3065224   -142.16407 
    9600     8000    243.55351   -3.7616055         40.8    28.936523    229.05114   -330.35213   -220.42873 
    9800     8000    241.93734   -3.7612228         40.8    28.954317    228.85159    216.70866    95.322486 
   10000     8000    244.75538   -3.7614148         40.8    29.006258     228.7989   -251.04065    -280.8697 
   10200     8000    244.81004   -3.7612505         40.8    28.849957    228.86349    454.57135    410.65886 
   10400     8000    246.32918   -3.7612749         40.8    28.900249    228.99262    200.17842    375.47524 
   10600     8000     248.5276     -3.76139         40.8    28.854202    228.92345   -64.865062   -85.147821 
   10800     8000    248.03292   -3.7611555         40.8    28.944276    228.86899   -121.80075   -190.37364 
   11000     8000    243.61515   -3.7604143         40.8    28.884501    228.89907    158.14618    163.17725 
   11200     8000    250.96316   -3.7611983         40.8    28.920455    228.89781    244.89302    219.37327 
   11400     8000    246.07754   -3.7603994         40.8    28.947296    228.97094   -154.89949   -218.98227 
   11600     8000    250.29701   -3.7607786         40.8    28.849957    228.97071   -616.61219   -567.40853 
   11800     8000    250.94718   -3.7606978         40.8    28.849957    228.84316   -50.162434   -128.08345 
   12000     8000    249.16468   -3.7603049         40.8    28.936033     228.9216   -234.04054   -227.73632 
   12200     8000    250.44938   -3.7603069         40.8     28.92057    229.03391   -591.77372   -432.24097 
   12400     8000    250.41352   -3.7601399         40.8    29.019918     228.8928    46.477269    -28.69183 
   12600     8000    250.22018    -3.759954         40.8    28.931789    228.93912   -213.98237   -172.28099 
   12800     8000    256.10751   -3.7605546         40.8    28.906922    228.89275    250.73258    309.03728 
   13000     8000    254.39802   -3.7601747         40.8    28.937299    228.76913    1032.3399    893.23804 
   13200     8000    254.19199   -3.7599902         40.8     28.88617    228.94485    108.87468    206.22144 
   13400     8000    255.63682   -3.7600189         40.8    28.977801    228.98902     110.5189    92.294033 
   13600     8000    256.37258   -3.7599574         40.8    28.896064    229.02495   -52.866157   -29.526041 
   13800     8000    256.95096   -3.7598762         40.8    29.005465    228.99099   -31.434272   -57.090983 
   14000     8000    257.08257   -3.7597389         40.8    28.941137    228.91074   -339.60724   -380.47588 
   14200     8000    255.92122   -3.7594349         40.8    28.991766    228.84361    212.31185   -72.933114 
   14400     8000    262.18083    -3.760093         40.8    28.988011     229.0484   -480.60731   -413.44955 
   14600     8000    256.73647   -3.7592361         40.8    28.941108    229.02917   -285.03202   -261.65743 
   14800     8000    255.49822   -3.7589248         40.8    28.964081     228.8895    83.411964    31.620617 
   15000     8000    257.30473   -3.7590093         40.8    28.849957     228.9175    359.43465    433.56072 
   15200     8000    259.00802     -3.75908         40.8    28.879333    228.89949    438.28731    454.40589 
   15400     8000    263.95409   -3.7595738         40.8    28.914039    228.93212    324.61988    267.00703 
   15600     8000    266.75189   -3.7597881         40.8    28.849957    229.00577    122.38217    291.11881 
   15800     8000    260.01241   -3.7587721         40.8    28.849957    228.86225    467.71654    383.84984 
   16000     8000    260.35797   -3.7586716         40.8    28.853861    228.95637   -378.67906   -319.73304 
   16200     8000    261.03113    -3.758615         40.8    28.862953     229.0119   -422.53308   -415.85843 
   16400     8000    258.99971   -3.7582089         40.8    28.849957    228.97755   -2.4685123   -47.491204 
   16600     8000    261.27671   -3.7583617         40.8    28.920831    229.04157   -213.21142   -103.92156 
   16800     8000    262.91915   -3.7584351         40.8    28.906309    228.97369   -4.4875698    40.770866 
   17000     8000    263.15407   -3.7583253         40.8     28.89012    228.83568    248.35725    167.41023 
   17200     8000    264.76879   -3.7583974         40.8    28.879285    228.88622    271.98189    238.09096 
   17400     8000    262.87956   -3.7580151         40.8    28.864687    229.05998   -12.828798    131.74944 
   17600     8000    267.53233    -3.758482         40.8    28.869591     229.0283   -255.30394   -176.82475 
   17800     8000    266.16014   -3.7581677         40.8    28.849957    228.96731   -62.383028   -76.950198 
   18000     8000    267.51802   -3.7582098         40.8    28.881426    228.97142   -151.70016   -206.23508 
   18200     8000    266.88269   -3.7579937         40.8    28.930381    228.98878   -210.49138   -185.20768 
   18400     8000    269.61856   -3.7582167         40.8    28.869316    229.05762    -36.68012   -45.427931 
   18600     8000    269.85797   -3.7581164         40.8    28.864228    229.12256   -237.34962   -104.69601 
   18800     8000    269.14764   -3.7578951         40.8    28.849957     228.9597   -51.857321   -65.205389 
   19000     8000    271.49487   -3.7580697         40.8    28.849957     228.8722    44.016887   -104.47627 
   19200     8000    271.41934   -3.7579331         40.8    28.849957    228.92681    157.56227    177.88364 
   19400     8000     271.8388   -3.7578617         40.8    28.849957    229.04467    412.91359    491.24459 
   19600     8000    269.25639    -3.757404         40.8    28.936029    229.02134   -18.757896    74.265133 
   19800     8000    273.12338   -3.7577789         40.8    28.931195    228.86191    118.80469    56.767316 
   20000     8000    274.69173   -3.7578593         40.8     28.87977    228.91116    435.41014     299.7913 
Loop time of 216.686 on 4 procs for 20000 steps with 8000 atoms

Pair  time (%) = 143.216 (66.0938)
Neigh time (%) = 1.99384 (0.920153)
Comm  time (%) = 58.6159 (27.0511)
Outpt time (%) = 0.0301538 (0.0139159)
Other time (%) = 12.83 (5.921)

Nlocal:    2000 ave 2008 max 1989 min
Histogram: 1 0 0 0 0 0 2 0 0 1
Nghost:    468 ave 474 max 463 min
Histogram: 1 0 1 0 0 1 0 0 0 1
Neighs:    65250 ave 65599 max 64852 min
Histogram: 1 0 0 0 1 0 1 0 0 1

Total # of neighbors = 261000
Ave neighs/atom = 32.625
Neighbor list builds = 420
Dangerous builds = 0
# Tensile loading
unfix 1
#undump 1
reset_timestep 0
compute MyTemp all temp
compute Mype all pe
compute peratom all stress/atom
# Computing time-averaged quantities - T & pe
fix ThermoAve all ave/time 1 100 200 c_MyTemp c_Mype
thermo 200
thermo_style custom step atoms f_ThermoAve[1] f_ThermoAve[2] lz vol pzz
WARNING: New thermo_style command, previous thermo_modify settings will be lost (output.cpp:471)
thermo_modify lost warn norm yes flush yes
fix 1 all nvt temp 300.0 300.0 10.0
#
#log 	log_1E8.lammps
fix 2 all deform 200 z erate 0.0005 # strain rate = 0.0001/ps = 10^8/sec
#fix 2 all deform 200 z erate 0.001 # strain rate = 0.001/ps = 10^9/sec
#dump 2 all cfg 20000 pos.*.cfg id type xs ys zs # Visualize with AtomEye
#dump 2 all cfg 2000 pos.1E8.*.cfg id type xs ys zs # Visualize with AtomEye
#dump 2 all xyz 50000 Au_*.xyz # Visualize with MDL
#dump_modify 2 element Au
#run 500000
run 150000
Memory usage per processor = 2.70311 Mbytes
Step Atoms ThermoAv ThermoAv Lz Volume Pzz 
       0     8000            0            0    228.91116    269526.73    435.73009 
     200     8000    271.03019   -3.7573663    229.02561    269714.87    174.43413 
     400     8000     272.2328   -3.7574262    229.14007     270808.5    127.25725 
     600     8000    272.48346    -3.757301    229.25452    270795.05   -757.81089 
     800     8000     273.6546   -3.7572424    229.36898    270666.49   -955.60542 
    1000     8000    274.88563   -3.7571799    229.48344    270913.09   -583.70984 
    1200     8000    275.10718   -3.7570077    229.59789    270460.59   -307.41021 
    1400     8000    275.31213   -3.7568542    229.71235     270389.4   -496.36035 
    1600     8000    276.19897   -3.7567907     229.8268    271182.71   -1211.6045 
    1800     8000    276.50841   -3.7566367    229.94126    271457.12   -1246.2436 
    2000     8000    277.08429   -3.7565035    230.05571    271602.23    -1401.255 
    2200     8000     277.9444   -3.7563927    230.17017    271397.33   -1169.3846 
    2400     8000    278.65904   -3.7562554    230.28462    271674.81   -2082.8022 
    2600     8000    280.11151   -3.7561984    230.39908    272265.55   -2249.4836 
    2800     8000    280.74282   -3.7560309    230.51354    272380.59   -1767.3998 
    3000     8000    281.95134   -3.7559415    230.62799    272957.43   -2152.3277 
    3200     8000    282.38335   -3.7557471    230.74245    271601.91   -2211.0108 
    3400     8000    283.10081   -3.7555889     230.8569    273114.48   -2126.2581 
    3600     8000    283.19737   -3.7553507    230.97136    272125.45   -2131.0303 
    3800     8000    283.76642   -3.7551735    231.08581    272006.08    -2271.432 
    4000     8000    284.99774   -3.7550807    231.20027    273367.66   -3070.2934 
    4200     8000    285.90131    -3.754938    231.31472    273009.62   -3143.4709 
    4400     8000    286.27342   -3.7547264    231.42918    272690.18   -3206.5972 
    4600     8000    286.82808   -3.7545397    231.54364    274446.21   -3531.3319 
    4800     8000    288.29889   -3.7544694    231.65809     272679.7   -3570.8919 
    5000     8000     288.4466   -3.7542297    231.77255    272814.42   -3682.8582 
    5200     8000    290.02819   -3.7541759      231.887    273726.07    -3960.615 
    5400     8000    290.09562   -3.7539266    232.00146     274399.8    -3796.819 
    5600     8000    290.46321   -3.7537205    232.11591    273218.59   -3901.1321 
    5800     8000    292.02872   -3.7536709    232.23037    273583.37   -4324.1336 
    6000     8000    292.62198   -3.7534943    232.34482    273830.71   -4400.1269 
    6200     8000    292.99273   -3.7532917    232.45928    273622.76   -4553.7655 
    6400     8000    293.24224   -3.7530756    232.57374    274491.54   -4645.2311 
    6600     8000    294.11042   -3.7529419    232.68819     274944.8   -4594.1067 
    6800     8000     295.3384   -3.7528588    232.80265    274957.83   -4995.4661 
    7000     8000    295.56827   -3.7526471     232.9171    274327.37   -4738.6748 
    7200     8000    295.89936   -3.7524559    233.03156    275811.59   -4933.9216 
    7400     8000     297.0529   -3.7523728    233.14601    275504.98   -5297.9552 
    7600     8000    296.84448   -3.7521153    233.26047    274768.72    -5734.726 
    7800     8000      297.877   -3.7520187    233.37492    275686.57   -5439.1096 
    8000     8000    298.83078   -3.7519195    233.48938    275546.38   -5034.0751 
    8200     8000    299.48945   -3.7517923    233.60384     275546.2   -5638.6493 
    8400     8000    299.35873    -3.751563    233.71829     275848.9   -6084.5232 
    8600     8000     300.0944   -3.7514466    233.83275    276325.83   -6065.8368 
    8800     8000     300.4603   -3.7512885     233.9472    276683.85   -5877.6995 
    9000     8000    301.23769   -3.7511912    234.06166    276730.95   -6203.1394 
    9200     8000    301.39123   -3.7510171    234.17611    276914.18   -6641.5312 
    9400     8000    301.45462    -3.750833    234.29057    276495.68    -6056.632 
    9600     8000     301.6966    -3.750685    234.40502    277981.69   -5896.0769 
    9800     8000    302.00112   -3.7505536    234.51948    277268.45   -6021.9168 
   10000     8000    302.09368   -3.7504004    234.63394    279237.01   -6948.8195 
   10200     8000    302.53433   -3.7502901    234.74839    277471.98    -7293.861 
   10400     8000    302.69509   -3.7501485    234.86285    276897.88   -6709.3658 
   10600     8000    303.59962   -3.7501172     234.9773    277452.67   -6819.9235 
   10800     8000    303.78233   -3.7499996    235.09176    277798.75   -7232.2336 
   11000     8000    304.10685   -3.7499045    235.20621    277610.34   -7432.1505 
   11200     8000    304.21859   -3.7497877    235.32067    278632.44   -7024.2676 
   11400     8000    303.36742   -3.7495596    235.43513    279195.17    -6549.233 
   11600     8000    304.20119   -3.7495633    235.54958    277989.83   -7393.9514 
   11800     8000    302.92302   -3.7492941    235.66404    278340.52   -7719.6815 
   12000     8000    304.11131   -3.7493494    235.77849    278321.57   -8040.6022 
   12200     8000    303.47366   -3.7491743    235.89295    279398.07   -8249.9053 
   12400     8000     303.6439   -3.7491097     236.0074    278918.62   -8110.2636 
   12600     8000    303.44534   -3.7490085    236.12186    278649.88   -8145.3721 
   12800     8000    302.78627   -3.7488557    236.23631    278890.47   -8167.2122 
   13000     8000    303.01984   -3.7488259    236.35077    279677.62   -8136.1955 
   13200     8000     302.8502    -3.748752    236.46523     280133.6   -8150.0702 
   13400     8000    303.42779   -3.7487813    236.57968    279116.67   -7926.0844 
   13600     8000    301.83839   -3.7485399    236.69414    280149.78   -7953.6053 
   13800     8000    301.99583   -3.7485286    236.80859    282919.37   -8169.5309 
   14000     8000    301.88983   -3.7484841    236.92305    281270.32   -8620.5586 
   14200     8000    300.54962   -3.7482795     237.0375    280745.39   -8870.2106 
   14400     8000    301.40747   -3.7483583    237.15196    282138.02   -9013.2447 
   14600     8000    301.16656   -3.7482934    237.26641    282109.34   -8951.9416 
   14800     8000    300.78014    -3.748211    237.38087    281437.23    -8858.893 
   15000     8000    300.10382   -3.7480914    237.49533    281858.31    -8459.963 
   15200     8000    299.65959   -3.7480043    237.60978    282255.75   -8034.4726 
   15400     8000    298.49456   -3.7478255    237.72424    282139.79    -8386.439 
   15600     8000    298.91119   -3.7478434    237.83869    283352.08   -8862.9656 
   15800     8000    298.07162     -3.74769    237.95315     282601.4   -9523.6519 
   16000     8000     297.8393   -3.7476034     238.0676    281787.51   -9514.0834 
   16200     8000    298.42272   -3.7476182    238.18206    282551.87   -9374.0301 
   16400     8000    298.04762   -3.7475049    238.29651    283539.96   -9492.9802 
   16600     8000    298.45766   -3.7474857    238.41097    283361.54   -9163.7563 
   16800     8000    298.14645   -3.7473705    238.52543    283811.83   -9454.1231 
   17000     8000    297.30284   -3.7471766    238.63988    282669.84    -9489.028 
   17200     8000    296.92166   -3.7470357    238.75434    283563.12   -9527.0304 
   17400     8000    297.58616   -3.7470219    238.86879    283866.78   -9475.3931 
   17600     8000     296.5523   -3.7467814    238.98325    282728.31   -9541.6653 
   17800     8000    296.82291   -3.7467015     239.0977       283731    -10086.78 
   18000     8000     296.7789   -3.7465668    239.21216    284953.62   -9943.6344 
   18200     8000    297.19972   -3.7464852    239.32661     283150.1   -10245.243 
   18400     8000    297.28626   -3.7463501    239.44107    284428.44   -10002.955 
   18600     8000    297.10858   -3.7461744    239.55553     285623.2   -9782.1055 
   18800     8000    297.61524   -3.7460806    239.66998    284377.97    -9680.452 
   19000     8000    297.28556   -3.7458722    239.78444     285063.1   -9538.8445 
   19200     8000     297.6048   -3.7457412    239.89889     285618.2    -9919.258 
   19400     8000    297.44021   -3.7455361    240.01335    284575.54   -10008.014 
   19600     8000    297.40726   -3.7453414     240.1278    284264.88   -10478.951 
   19800     8000    297.10156   -3.7451017    240.24226    285324.75   -10605.886 
   20000     8000    298.57557   -3.7450858    240.35672    285750.31   -10571.273 
   20200     8000    298.74041   -3.7448974    240.47117     285074.2   -10034.095 
   20400     8000    298.84875   -3.7447054    240.58563    286661.02   -9795.9791 
   20600     8000    299.22677    -3.744549    240.70008    286449.34    -10303.39 
   20800     8000     299.8981   -3.7444252    240.81454    286356.76   -10293.251 
   21000     8000    299.13576   -3.7441165    240.92899    288180.61   -10043.332 
   21200     8000    299.85822   -3.7440034    241.04345    288083.77    -10453.73 
   21400     8000    299.95542   -3.7438072     241.1579     288938.8   -10717.975 
   21600     8000    300.07343   -3.7436128    241.27236    289151.26   -10808.504 
   21800     8000    300.33287   -3.7434377    241.38682     288146.5   -10462.806 
   22000     8000    300.59459   -3.7432709    241.50127    288993.72   -9766.5575 
   22200     8000    301.27799   -3.7431686    241.61573    290233.46    -9673.989 
   22400     8000    302.42855   -3.7431316    241.73018    289581.34     -10120.2 
   22600     8000     303.8597   -3.7431333    241.84464    289660.65   -10432.716 
   22800     8000     303.3634   -3.7428929    241.95909    288691.12   -10321.206 
   23000     8000    303.59909   -3.7427574    242.07355    289184.54     -9949.41 
   23200     8000    303.65333   -3.7426118      242.188    289007.86   -9911.2061 
   23400     8000    303.78894   -3.7424856    242.30246    288077.31     -10040.5 
   23600     8000    304.33051   -3.7424208    242.41692    288839.12   -10616.353 
   23800     8000    304.03766   -3.7422506    242.53137    288974.82   -10120.765 
   24000     8000    303.15108   -3.7420202    242.64583    290022.74   -9848.7821 
   24200     8000    303.54658   -3.7419668    242.76028    290733.28   -10057.532 
   24400     8000    303.42753   -3.7418537    242.87474     289466.5   -10189.188 
   24600     8000    305.09206   -3.7419789    242.98919    290224.89   -10254.359 
   24800     8000    306.22316   -3.7420468    243.10365    290243.14   -9903.4601 
   25000     8000    305.08999   -3.7418401     243.2181    290289.34   -9591.8077 
   25200     8000    305.05864    -3.741791    243.33256     290495.6   -9621.7991 
   25400     8000    305.94051   -3.7418716    243.44702    289028.51   -9187.9344 
   25600     8000    306.45206    -3.741923    243.56147    290777.53    -9400.726 
   25800     8000    307.41553   -3.7420429    243.67593    290071.88   -8848.6454 
   26000     8000    307.52464    -3.742072    243.79038    291193.04   -9479.5734 
   26200     8000    308.86575   -3.7422636    243.90484    288797.47    -9701.875 
   26400     8000     308.5377   -3.7422463    244.01929    288251.91   -9601.3086 
   26600     8000    307.62459   -3.7421573    244.13375    290320.69   -9007.3558 
   26800     8000    307.02432   -3.7421119     244.2482    290955.16   -9362.8052 
   27000     8000    306.72036   -3.7420969    244.36266       290165   -9309.9682 
   27200     8000    305.57462   -3.7419689    244.47712    290829.89   -9211.8979 
   27400     8000    305.50307   -3.7419759    244.59157    292443.96   -8748.1426 
   27600     8000    305.64194   -3.7420105    244.70603    290996.32    -8961.514 
   27800     8000     305.8902   -3.7420559    244.82048    292771.47   -9156.2043 
   28000     8000    305.48133   -3.7420138    244.93494    291765.31    -9430.438 
   28200     8000    306.83554   -3.7421969    245.04939    291880.85   -8796.0456 
   28400     8000    306.55236   -3.7421771    245.16385    291556.38   -8000.1757 
   28600     8000    307.55247   -3.7423352     245.2783    290597.72   -7271.5747 
   28800     8000    306.86686   -3.7422862    245.39276    291963.58   -8104.7371 
   29000     8000    306.48817   -3.7422702    245.50722    291763.92   -8450.1432 
   29200     8000    306.69377   -3.7423274    245.62167    291292.58   -8260.4908 
   29400     8000    306.76139   -3.7423693    245.73613    291315.79   -7694.5385 
   29600     8000    307.23929   -3.7424696    245.85058    292540.51   -6994.3295 
   29800     8000    306.76179   -3.7424536    245.96504    291849.86    -7549.497 
   30000     8000    307.07814   -3.7425346    246.07949    292376.56   -6875.4161 
   30200     8000    307.07336    -3.742582    246.19395    292004.15   -6415.2768 
   30400     8000    306.62466   -3.7425776    246.30841    293148.64    -6451.822 
   30600     8000    306.66026   -3.7426358    246.42286    292169.42   -6407.9334 
   30800     8000    306.13076   -3.7426227    246.53732    292130.79   -5893.1664 
   31000     8000    306.66654   -3.7427537    246.65177    292393.39   -5578.4279 
   31200     8000    306.61953   -3.7428125    246.76623    292935.19   -5413.2982 
   31400     8000    305.55487   -3.7427403    246.88068    292903.55   -5003.9523 
   31600     8000    304.61152   -3.7426864    246.99514    291693.53   -5215.3626 
   31800     8000    304.43719   -3.7427256    247.10959    292698.26   -4994.6678 
   32000     8000    303.69675   -3.7426892    247.22405    291364.69   -4913.9737 
   32200     8000    303.02285   -3.7426581    247.33851    292809.23   -4946.9062 
   32400     8000    302.43685   -3.7426339    247.45296    293290.66   -4907.4536 
   32600     8000    302.07784   -3.7426349    247.56742    293495.39   -4879.5858 
   32800     8000    302.11768   -3.7426846    247.68187    294098.33   -5401.1887 
   33000     8000    302.03144   -3.7427091    247.79633    294632.04   -5747.6282 
   33200     8000    300.64254   -3.7425573    247.91078    294074.17   -5961.8144 
   33400     8000    299.98343   -3.7424916    248.02524    294588.37   -6070.8354 
   33600     8000     300.7638   -3.7426042    248.13969    295529.35   -6345.1825 
   33800     8000    300.10069   -3.7425221    248.25415    294966.61   -5795.0932 
   34000     8000    298.45695   -3.7423141    248.36861    295085.74   -6289.9216 
   34200     8000     299.1075   -3.7423918    248.48306    295671.33   -6934.6057 
   34400     8000    299.24496   -3.7423902    248.59752    294226.28   -6742.6958 
   34600     8000    299.18948   -3.7423619    248.71197    295323.44   -7241.0037 
   34800     8000    299.72416   -3.7424007    248.82643     293718.8   -6825.3045 
   35000     8000    298.89119   -3.7422633    248.94088    294748.67   -6498.2327 
   35200     8000    298.72044   -3.7422105    249.05534     294974.1    -5973.971 
   35400     8000    298.20358   -3.7421136    249.16979    296654.43   -6230.2127 
   35600     8000    298.82822   -3.7421561    249.28425    295176.86   -6129.9495 
   35800     8000    298.06949   -3.7420169    249.39871    295873.93   -6437.9681 
   36000     8000    298.13419   -3.7419755    249.51316    295918.04   -6256.0345 
   36200     8000    298.27161   -3.7419403    249.62762    297502.99   -6055.5441 
   36400     8000    298.87355   -3.7419626    249.74207    299680.15   -6231.7467 
   36600     8000    298.85721   -3.7418979    249.85653    298283.53   -6716.2548 
   36800     8000    298.62855   -3.7417963    249.97098    297825.27    -6445.359 
   37000     8000    297.95613   -3.7416353    250.08544    298415.57   -5327.1561 
   37200     8000    297.72413   -3.7415385    250.19989    297685.39   -6112.8739 
   37400     8000    298.60301   -3.7415715    250.31435       298642   -6774.8433 
   37600     8000    299.12074   -3.7415473    250.42881    299381.19   -6377.2405 
   37800     8000    299.18414   -3.7414638    250.54326    297029.98   -5856.6715 
   38000     8000    298.79569    -3.741325    250.65772    298784.36   -5850.0427 
   38200     8000    299.28623   -3.7412954    250.77217    298541.51   -6268.1016 
   38400     8000    299.05629   -3.7411656    250.88663    300286.51   -6787.8855 
   38600     8000    299.32419   -3.7410918    251.00108    299732.32     -6591.58 
   38800     8000    299.91425   -3.7410586    251.11554    301164.96   -6396.3709 
   39000     8000    300.26115   -3.7409943       251.23     300438.3   -6280.8763 
   39200     8000    300.95634    -3.740976    251.34445    301118.74   -6297.7869 
   39400     8000    300.84243    -3.740854    251.45891    300450.06   -6457.9687 
   39600     8000    300.94566   -3.7407601    251.57336    302473.22   -6232.3117 
   39800     8000    301.16102    -3.740685    251.68782    300219.88   -6348.9077 
   40000     8000    302.17471   -3.7407141    251.80227    301737.06   -5929.6536 
   40200     8000    302.01399   -3.7405982    251.91673    300167.03   -6005.3037 
   40400     8000    302.22271   -3.7405342    252.03118    301669.98    -5503.711 
   40600     8000    302.97726   -3.7405499    252.14564     300443.8   -4943.3392 
   40800     8000    303.34509    -3.740528     252.2601    300703.65   -5200.2838 
   41000     8000    302.95806   -3.7404138    252.37455    300521.49   -5312.6622 
   41200     8000    303.21748   -3.7403909    252.48901     300292.1    -5563.635 
   41400     8000    302.48457   -3.7402462    252.60346    301237.14   -5872.6461 
   41600     8000    303.22274   -3.7402968    252.71792    300164.43    -6095.146 
   41800     8000    303.38237   -3.7402798    252.83237    303973.39   -5585.0647 
   42000     8000    303.29585   -3.7402451    252.94683    300888.06   -5495.4688 
   42200     8000    302.77616   -3.7401652    253.06128    301662.15   -5668.5094 
   42400     8000    302.34797   -3.7401033    253.17574    301472.41   -5693.2574 
   42600     8000    302.13353   -3.7400761     253.2902     302166.3   -6099.1713 
   42800     8000    302.26077   -3.7400955    253.40465    301690.67   -6508.3915 
   43000     8000    302.20285   -3.7400914    253.51911    302256.65    -5960.974 
   43200     8000    301.29932   -3.7399859    253.63356    301541.46   -6099.2998 
   43400     8000    301.56698   -3.7400302    253.74802    302247.59   -5473.4008 
   43600     8000    301.95285   -3.7400932    253.86247    301941.85    -5595.099 
   43800     8000    301.13605   -3.7399961    253.97693    301993.07    -6178.619 
   44000     8000     300.8212   -3.7399526    254.09138    302165.54   -5874.2264 
   44200     8000    300.88402   -3.7399558    254.20584    302412.38   -5076.1443 
   44400     8000    300.48266   -3.7399017     254.3203    303387.68   -5633.4117 
   44600     8000    299.83153   -3.7398027    254.43475    303366.18   -6122.0997 
   44800     8000    299.61372   -3.7397492    254.54921    304012.66   -5300.6865 
   45000     8000    300.00718   -3.7397773    254.66366    304035.59   -5799.0979 
   45200     8000    300.39455   -3.7397947    254.77812    303326.33   -6120.5243 
   45400     8000    299.20494   -3.7396007    254.89257    302626.35   -6163.1626 
   45600     8000    299.53469   -3.7395979    255.00703    303533.53   -5537.7141 
   45800     8000    299.18062   -3.7395099    255.12148    304984.28    -5527.095 
   46000     8000    299.89391   -3.7395568    255.23594    302656.33   -5716.7843 
   46200     8000    299.65389   -3.7394772     255.3504    304525.33   -5689.7708 
   46400     8000    299.69341   -3.7394322    255.46485    304245.22   -5689.1799 
   46600     8000    299.59412   -3.7393684    255.57931    303837.44   -6011.3587 
   46800     8000    299.71064    -3.739328    255.69376    305248.01   -5647.4571 
   47000     8000    299.48897    -3.739247    255.80822    303563.49    -6516.487 
   47200     8000    299.85896   -3.7392317    255.92267     303019.5   -6804.9815 
   47400     8000    300.58712   -3.7392592    256.03713    303748.19   -5932.3557 
   47600     8000    299.96638   -3.7391217    256.15158    303963.77   -5507.3813 
   47800     8000    300.90954    -3.739192    256.26604    304398.81   -6053.2365 
   48000     8000    300.79748   -3.7391221     256.3805    303900.79    -5967.785 
   48200     8000    300.55656   -3.7390382    256.49495    306281.67   -5524.1739 
   48400     8000    300.48454   -3.7389823    256.60941    305373.31   -5697.7611 
   48600     8000    300.93821   -3.7389937    256.72386    306448.39   -5602.9436 
   48800     8000    300.80718   -3.7389334    256.83832    305153.48   -5239.4516 
   49000     8000     300.8123   -3.7388992    256.95277    308094.37   -5708.5949 
   49200     8000    301.33292   -3.7389314    257.06723    308571.67    -5550.656 
   49400     8000    301.92638   -3.7389819    257.18169    306107.65   -5061.5495 
   49600     8000    300.89279   -3.7388361    257.29614     308651.2   -4882.1699 
   49800     8000    300.72698    -3.738814     257.4106    311294.02   -5155.0919 
   50000     8000    300.60858   -3.7388045    257.52505    309021.76   -5411.4321 
   50200     8000    300.25675   -3.7387733    257.63951    312330.95   -5037.3798 
   50400     8000    299.90773   -3.7387573    257.75396    311886.05   -4545.5047 
   50600     8000    300.88861   -3.7389282    257.86842    311478.31   -4881.1776 
   50800     8000    298.93778   -3.7387229    257.98287    310797.78   -5055.8751 
   51000     8000    299.40006    -3.738828    258.09733    309920.01   -5315.6224 
   51200     8000    298.89555   -3.7388007    258.21179    311661.28    -5025.182 
   51400     8000      298.686   -3.7388053    258.32624    311479.26   -5107.8711 
   51600     8000    298.75801   -3.7388331     258.4407    310739.71   -5137.2865 
   51800     8000    298.29964   -3.7387791    258.55515    311786.66   -5229.7367 
   52000     8000    298.04013   -3.7387363    258.66961    314162.45   -5410.0723 
   52200     8000    298.08775   -3.7387178    258.78406    312307.79   -5500.1092 
   52400     8000    297.46822      -3.7386    258.89852    314228.47   -5378.5077 
   52600     8000    298.35512   -3.7386678    259.01297    313323.99   -5654.0408 
   52800     8000    299.16389   -3.7387146    259.12743    313899.92   -5569.9769 
   53000     8000    298.99211   -3.7386296    259.24189     317363.9   -5778.9262 
   53200     8000    300.23813   -3.7387201    259.35634    318238.22   -5254.6606 
   53400     8000    298.88777   -3.7384774     259.4708     316420.5   -5071.7862 
   53600     8000    299.16878   -3.7384448    259.58525    315836.31   -5467.8495 
   53800     8000    299.61338   -3.7384268    259.69971    318126.69   -5703.1088 
   54000     8000    299.71897   -3.7383602    259.81416    319932.35   -6125.9928 
   54200     8000     299.8262   -3.7382887    259.92862    319844.03    -5785.368 
   54400     8000    300.38275   -3.7382792    260.04307     318458.1   -5755.6889 
   54600     8000    299.50134   -3.7380841    260.15753    317010.95   -5706.5678 
   54800     8000    299.53027   -3.7380067    260.27199    317474.04   -5896.4002 
   55000     8000    300.60727   -3.7380621    260.38644    323307.45    -5624.503 
   55200     8000    300.07813   -3.7379121     260.5009    320876.05   -5773.8499 
   55400     8000    299.65351   -3.7377748    260.61535    316170.03   -6104.1321 
   55600     8000    300.90427   -3.7378515    260.72981    319773.71   -6313.5688 
   55800     8000    299.89378   -3.7376335    260.84426    321226.87   -6979.2363 
   56000     8000    300.34194   -3.7375954    260.95872    321768.43    -6073.726 
   56200     8000    301.46616   -3.7376541    261.07317    323991.62   -5888.0382 
   56400     8000    299.79792   -3.7373538    261.18763    325565.76   -5831.1267 
   56600     8000    300.35305   -3.7373418    261.30209     322339.3   -5922.4843 
   56800     8000    300.41469   -3.7372661    261.41654    326218.51   -5620.4374 
   57000     8000    299.52774   -3.7370708      261.531    324352.77   -5902.7323 
   57200     8000    301.02656   -3.7371808    261.64545    323772.05   -6157.7584 
   57400     8000    299.94545   -3.7369548    261.75991    324636.82   -6124.7765 
   57600     8000    300.96271   -3.7370015    261.87436    325942.76   -6370.5841 
   57800     8000    301.58394   -3.7369956    261.98882    325132.97   -6482.8441 
   58000     8000    301.24102    -3.736867    262.10328    326861.07   -6128.3472 
   58200     8000    301.85841   -3.7368693    262.21773    327150.59   -5770.1335 
   58400     8000    301.81856   -3.7367944    262.33219    327124.67   -5764.1579 
   58600     8000    301.42107   -3.7366791    262.44664    327421.65   -5734.1623 
   58800     8000    301.14494   -3.7365873     262.5611    327150.59     -5337.83 
   59000     8000    301.49648   -3.7365908    262.67555    324497.09    -5796.507 
   59200     8000    301.57409   -3.7365657    262.79001    325613.15   -5643.2961 
   59400     8000    303.11232   -3.7367433    262.90446    328843.67   -5599.9393 
   59600     8000    301.85432   -3.7365729    263.01892    326326.38   -5146.2637 
   59800     8000    303.01557   -3.7367336    263.13338    326546.15   -5273.6711 
   60000     8000    301.91972   -3.7366134    263.24783    324974.05   -5341.0955 
   60200     8000     301.4786   -3.7365854    263.36229     326112.1   -5952.9755 
   60400     8000    300.58948   -3.7364976    263.47674    328047.75   -5355.5835 
   60600     8000    301.07007   -3.7365914     263.5912    326201.03   -5711.2401 
   60800     8000    301.09356   -3.7366194    263.70565    327685.67   -5266.4182 
   61000     8000    300.62342   -3.7365831    263.82011    328000.76   -5324.5673 
   61200     8000    300.99879   -3.7366488    263.93456    327566.53   -5613.6679 
   61400     8000     300.1945   -3.7365517    264.04902    325039.09   -5381.0264 
   61600     8000    300.41068   -3.7365819    264.16348    324758.42   -5549.2054 
   61800     8000    300.30253   -3.7365618    264.27793    322574.33   -4956.0697 
   62000     8000    301.38569   -3.7366971    264.39239    324428.87   -5022.5302 
   62200     8000    301.02403   -3.7366417    264.50684    321401.01   -5035.2903 
   62400     8000    302.23345   -3.7367884     264.6213     321250.4   -4777.9152 
   62600     8000    302.50793   -3.7368163    264.73575     319057.9   -4145.2733 
   62800     8000    303.16536   -3.7369036    264.85021    319109.54   -4269.8315 
   63000     8000    304.06957   -3.7370259    264.96466    316599.62   -3950.0343 
   63200     8000    303.70908   -3.7369923    265.07912    315388.88   -3712.0673 
   63400     8000    302.48491   -3.7368538    265.19358    317262.16   -3649.7594 
   63600     8000    302.78198   -3.7369148    265.30803    317180.88    -3483.393 
   63800     8000    301.81032   -3.7368129    265.42249    317543.39   -3778.0566 
   64000     8000    301.29074   -3.7367647    265.53694    316490.64    -4100.146 
   64200     8000    301.63334   -3.7368215     265.6514    317770.75   -4163.7204 
   64400     8000    301.27188    -3.736783    265.76585    318466.38    -3962.085 
   64600     8000    301.46197   -3.7368152    265.88031    320329.12   -3883.6948 
   64800     8000    300.47131   -3.7366916    265.99476     320177.4   -4006.4338 
   65000     8000    300.95039   -3.7367532    266.10922    319800.37   -4159.0458 
   65200     8000    301.38231   -3.7368055    266.22368    322831.53   -4711.6944 
   65400     8000    300.76378   -3.7367142    266.33813    322158.01   -4365.7116 
   65600     8000    300.41969   -3.7366596    266.45259    323020.15   -4609.1737 
   65800     8000    300.23197   -3.7366203    266.56704    322953.81    -4824.044 
   66000     8000    300.79742   -3.7366737     266.6815    323220.09   -5020.3683 
   66200     8000    300.20802   -3.7365737    266.79595    322534.73   -4807.5404 
   66400     8000    300.47887   -3.7365851    266.91041    322668.47   -4819.2502 
   66600     8000    300.40044   -3.7365499    267.02486    323332.02   -4833.4767 
   66800     8000     300.4919   -3.7365358    267.13932    324184.44   -4640.2482 
   67000     8000    301.35546   -3.7366234    267.25378    323655.32   -4401.4363 
   67200     8000    302.21874   -3.7367142    267.36823    323020.26   -3957.0564 
   67400     8000    301.76769   -3.7366427    267.48269    322096.88   -4143.5007 
   67600     8000    301.18651   -3.7365546    267.59714    322692.99   -4480.8886 
   67800     8000    301.70328   -3.7366073     267.7116    324007.12   -3941.8096 
   68000     8000    302.30657   -3.7366793    267.82605    325129.22   -3598.3529 
   68200     8000    302.11557    -3.736655    267.94051    323395.22   -3629.2569 
   68400     8000    302.53609   -3.7367128    268.05497    324285.15   -3616.0937 
   68600     8000    301.66644   -3.7366052    268.16942    327912.56   -3355.9459 
   68800     8000    302.19024   -3.7366828    268.28388    323310.87   -3241.4699 
   69000     8000      300.979   -3.7365397    268.39833    322753.11   -3508.8563 
   69200     8000    301.44081   -3.7366095    268.51279    323389.63     -3554.57 
   69400     8000    302.07465   -3.7367012    268.62724    328649.88   -3476.6082 
   69600     8000    301.22044   -3.7366016     268.7417    324807.18   -3839.8503 
   69800     8000    300.94203   -3.7365715    268.85615    328156.24   -3680.6948 
   70000     8000    301.46471   -3.7366429    268.97061       329934   -3682.2625 
   70200     8000    301.26615   -3.7366177    269.08507    329419.78   -3581.2348 
   70400     8000    300.84335   -3.7365606    269.19952    331993.39   -3996.5637 
   70600     8000    300.98521    -3.736567    269.31398    332442.32    -4251.438 
   70800     8000    301.31824   -3.7365905    269.42843    334806.82   -3856.9245 
   71000     8000    301.13205   -3.7365481    269.54289    332755.87   -4304.9893 
   71200     8000    300.93065   -3.7364957    269.65734    336011.25   -4165.8036 
   71400     8000    300.24863   -3.7363792     269.7718    337456.89   -4082.5525 
   71600     8000    300.16889   -3.7363385    269.88625    335898.78    -3979.572 
   71800     8000    301.82646   -3.7365208    270.00071    339437.82   -3343.2964 
   72000     8000    300.57023   -3.7363317    270.11517    338441.25   -3032.0491 
   72200     8000    301.28255   -3.7363996    270.22962    342564.27   -3511.5593 
   72400     8000    301.15103    -3.736351    270.34408    348908.11   -3418.3951 
   72600     8000    300.49294    -3.736234    270.45853    345469.69   -3357.8132 
   72800     8000    299.79132   -3.7361112    270.57299    344593.02   -3432.2803 
   73000     8000    300.92804   -3.7362253    270.68744     344820.8   -3505.8329 
   73200     8000      300.736   -3.7361658     270.8019    349128.63   -3474.9977 
   73400     8000    300.88985   -3.7361516    270.91635    349941.57   -3178.7986 
   73600     8000    300.86743   -3.7361176    271.03081    345493.67   -3323.9882 
   73800     8000     301.9208   -3.7362232    271.14527    350662.47   -2656.5042 
   74000     8000    301.02327   -3.7360877    271.25972    350342.98   -2972.6259 
   74200     8000    301.42064    -3.736119    271.37418    352491.58   -3575.8418 
   74400     8000    302.12069   -3.7361856    271.48863    353359.74   -3533.4885 
   74600     8000    301.97793   -3.7361475    271.60309    352133.98   -3316.2959 
   74800     8000    301.91141   -3.7361249    271.71754    348700.85   -3120.9747 
   75000     8000    301.56802    -3.736072      271.832    352357.23   -3666.6249 
   75200     8000     300.3147   -3.7358981    271.94645    358021.26   -3575.2122 
   75400     8000    301.94167   -3.7360993    272.06091    353099.79   -3265.5664 
   75600     8000    301.78652   -3.7360779    272.17537    351411.84   -3150.9358 
   75800     8000    301.14718   -3.7359984    272.28982    353967.71   -3307.6523 
   76000     8000     301.0915   -3.7359959    272.40428    352307.25   -3229.7052 
   76200     8000    301.63582    -3.736074    272.51873    351400.89   -3264.8393 
   76400     8000    301.05751   -3.7360092    272.63319    351323.17    -3060.001 
   76600     8000     300.9106    -3.736005    272.74764    347078.43   -2920.4482 
   76800     8000     301.2282   -3.7360627     272.8621    344391.12   -2968.8061 
   77000     8000    300.58074   -3.7359938    272.97655    341511.09   -2739.8012 
   77200     8000    300.68773   -3.7360245    273.09101    341048.51   -2819.1026 
   77400     8000    301.69288   -3.7361691    273.20547    342074.93   -3072.6264 
   77600     8000    302.51846   -3.7362869    273.31992    337522.19   -3195.9753 
   77800     8000    302.24205     -3.73626    273.43438    340024.55   -2520.4111 
   78000     8000    301.48475   -3.7361759    273.54883    334745.87   -2566.6462 
   78200     8000     301.1522   -3.7361429    273.66329    336510.08   -2744.7782 
   78400     8000    302.10289   -3.7362692    273.77774     333983.7   -2437.1549 
   78600     8000    302.32508   -3.7362999     273.8922    334927.28   -2189.0457 
   78800     8000    301.18796   -3.7361535    274.00666    338713.58   -1947.2395 
   79000     8000    302.52511   -3.7363259    274.12111    333039.98   -2271.6069 
   79200     8000    302.16932   -3.7362749    274.23557    333106.43   -2573.2383 
   79400     8000    303.37643   -3.7364236    274.35002    332100.89   -2310.5676 
   79600     8000    304.13997   -3.7365195    274.46448    335126.45   -2003.8278 
   79800     8000    304.01493   -3.7365066    274.57893    332171.57   -2721.4706 
   80000     8000    305.31936   -3.7366753    274.69339    332400.29   -2457.9968 
   80200     8000    306.40218   -3.7368252    274.80784    333283.05   -2458.7013 
   80400     8000    307.26351   -3.7369562     274.9223    330331.69   -2232.3165 
   80600     8000    307.30445   -3.7369951    275.03676    333676.47   -2432.7471 
   80800     8000     309.1055   -3.7372723    275.15121    332563.29   -1921.3613 
   81000     8000    309.52151   -3.7373908    275.26567    333521.81   -1488.3268 
   81200     8000     311.1162   -3.7376777    275.38012       332407   -1314.6016 
   81400     8000    309.13905   -3.7375155    275.49458     336030.1   -823.52531 
   81600     8000    310.25789   -3.7377627    275.60903    334986.02   -327.85849 
   81800     8000    309.61203   -3.7377909    275.72349    331979.77   -50.973758 
   82000     8000    312.61419   -3.7382946    275.83794    331816.15   -399.38857 
   82200     8000    313.80157   -3.7385653     275.9524    334638.98   -321.91759 
   82400     8000    314.03519   -3.7387204    276.06686    333848.21    673.59277 
   82600     8000    314.18295   -3.7388814    276.18131    333146.46    1567.5073 
   82800     8000    313.34599   -3.7389286    276.29577    333407.14    1687.4729 
   83000     8000     312.9593   -3.7390374    276.41022    332401.78    1763.2716 
   83200     8000    313.26812   -3.7392389    276.52468    335956.36    2100.0686 
   83400     8000    314.27472   -3.7395382    276.63913    334610.45    781.25967 
   83600     8000    313.54466   -3.7396047    276.75359     335087.5    891.23105 
   83800     8000    313.32984   -3.7397441    276.86804    333248.93    934.22343 
   84000     8000    312.89058   -3.7398576     276.9825    334356.26    549.74944 
   84200     8000    312.63104   -3.7399914    277.09696     333884.2    595.56603 
   84400     8000    312.14264   -3.7400967    277.21141    332800.02    1083.3646 
   84600     8000    311.36731   -3.7401707    277.32587    331738.29    806.18973 
   84800     8000    310.36741   -3.7402114    277.44032    331685.55     312.2029 
   85000     8000    309.77204   -3.7402979    277.55478    331600.27   -329.93096 
   85200     8000    309.55886   -3.7404254    277.66923    333631.35   -776.32193 
   85400     8000    309.24227   -3.7405322    277.78369    334469.95   -1131.0652 
   85600     8000     308.2522    -3.740546    277.89814    334304.93   -1483.4762 
   85800     8000    307.79872   -3.7406227     278.0126    337600.41    -1505.999 
   86000     8000    308.21405   -3.7408102    278.12706    338041.99   -729.22175 
   86200     8000    307.88228   -3.7409078    278.24151    338945.85   -599.25315 
   86400     8000    308.17419   -3.7410872    278.35597    338751.45     -182.341 
   86600     8000    307.16361   -3.7411019    278.47042     338886.3   -438.92582 
   86800     8000    306.30691   -3.7411335    278.58488    338964.84   -21.291421 
   87000     8000    305.76594   -3.7412074    278.69933    338245.11   -123.10799 
   87200     8000    305.06852   -3.7412566    278.81379    339052.97   -195.85594 
   87400     8000     304.1673    -3.741275    278.92825    338779.64   -94.720952 
   87600     8000    304.72756     -3.74148     279.0427    339184.92    299.80022 
   87800     8000    303.77881   -3.7414909    279.15716    337844.28    1218.1553 
   88000     8000    303.67494   -3.7416165    279.27161     338213.7    1717.4158 
   88200     8000    302.79602   -3.7416427    279.38607    339727.68    1666.8828 
   88400     8000    302.68119   -3.7417628    279.50052    340236.67      1427.87 
   88600     8000    302.00805   -3.7418054    279.61498    337159.15    1064.5233 
   88800     8000     301.9274   -3.7419167    279.72943    336820.77    627.36948 
   89000     8000    301.70038   -3.7420011    279.84389    337372.95    439.73688 
   89200     8000     300.9949   -3.7420173    279.95835    338355.12     143.3586 
   89400     8000    299.78474   -3.7419602     280.0728    337840.87    135.06045 
   89600     8000    299.82424   -3.7420587    280.18726    338289.42    38.225151 
   89800     8000    299.17004   -3.7420604    280.30171    338138.29   -280.65425 
   90000     8000    298.70586   -3.7420753    280.41617    338267.02   -399.42043 
   90200     8000    298.87802   -3.7421643    280.53062    338743.93   -612.42505 
   90400     8000    298.77276   -3.7422088    280.64508    337677.03   -1056.4291 
   90600     8000     298.4216   -3.7422117    280.75953    338207.62   -1571.3018 
   90800     8000    297.83811   -3.7421722    280.87399    337197.61   -1085.4989 
   91000     8000    298.47855   -3.7422896    280.98845    337791.51   -737.65786 
   91200     8000    299.37845   -3.7424397     281.1029    339207.85    -587.9547 
   91400     8000     298.9335   -3.7424142    281.21736    344281.47   -218.40554 
   91600     8000    299.01691   -3.7424585    281.33181    341298.02   -178.60951 
   91800     8000    298.41884   -3.7424118    281.44627    341111.61    152.09899 
   92000     8000    298.51273   -3.7424553    281.56072    341628.47    546.85115 
   92200     8000    298.77675   -3.7425214    281.67518    342089.82    366.02645 
   92400     8000    298.61823   -3.7425276    281.78963    342239.46    752.01906 
   92600     8000     298.9056   -3.7425917    281.90409    341814.37     1012.509 
   92800     8000    298.89929   -3.7426158    282.01855    343185.27     1059.621 
   93000     8000    297.72576   -3.7424847      282.133    342083.58    1561.0026 
   93200     8000     297.8556   -3.7425218    282.24746    343119.13    1193.1553 
   93400     8000    297.79219   -3.7425243    282.36191    341705.49    863.44644 
   93600     8000    298.94667   -3.7426755    282.47637    342888.86    1093.4832 
   93800     8000    297.75724   -3.7425216    282.59082     342478.2    381.49276 
   94000     8000    298.33209   -3.7425822    282.70528    341179.11    61.009068 
   94200     8000    297.29226   -3.7424249    282.81973    340376.56   -524.54835 
   94400     8000    297.71121   -3.7424436    282.93419    341203.55   -508.18031 
   94600     8000     298.6202   -3.7425189    283.04865    340313.97   -172.75263 
   94800     8000    298.83487   -3.7425018     283.1631    342993.29    -143.1907 
   95000     8000    298.07061   -3.7423528    283.27756    346553.82   -491.12068 
   95200     8000    298.32984   -3.7423267    283.39201    342853.57   -628.50954 
   95400     8000    298.81102   -3.7423226    283.50647    342201.77    -733.1729 
   95600     8000    298.98299   -3.7422723    283.62092    342925.17   -1069.5354 
   95800     8000    298.81696   -3.7421712    283.73538    345675.51    -952.6831 
   96000     8000    299.71863   -3.7422067    283.84983    345766.29   -1184.1823 
   96200     8000    301.16595   -3.7423095    283.96429    346135.65   -352.54789 
   96400     8000    300.66152   -3.7421695    284.07875    341908.41    85.834673 
   96600     8000    301.31891   -3.7421868     284.1932    345730.52    318.72493 
   96800     8000    300.97251   -3.7420799    284.30766    348751.75    612.80786 
   97000     8000    301.44806   -3.7420847    284.42211    350214.63    580.16989 
   97200     8000    301.91977   -3.7420937    284.53657    344918.78    1001.0451 
   97400     8000    300.89829   -3.7419189    284.65102     348609.1    381.23214 
   97600     8000    302.50851   -3.7420818    284.76548    351793.16     470.2376 
   97800     8000    302.47901    -3.742039    284.87994    347510.22    927.79565 
   98000     8000    302.61508   -3.7420279    284.99439    353143.34    835.76337 
   98200     8000    303.39976   -3.7421053    285.10885    352861.22    985.72141 
   98400     8000    302.60405   -3.7419859     285.2233     359006.7     931.8169 
   98600     8000    302.32398   -3.7419383    285.33776    364734.25    591.47902 
   98800     8000    302.12255   -3.7419038    285.45221    363394.14   -84.527341 
   99000     8000    302.06146   -3.7418866    285.56667    366058.95   -348.58325 
   99200     8000    302.57461   -3.7419469    285.68112    370377.29   -707.40481 
   99400     8000    301.89649   -3.7418553    285.79558    371015.46   -478.36951 
   99600     8000     302.6657   -3.7419594    285.91004    370403.67   -463.71705 
   99800     8000    302.10445   -3.7418975    286.02449    376428.25    -573.0125 
  100000     8000    301.26572   -3.7418039    286.13895    376747.13    -148.0316 
  100200     8000    301.39377   -3.7418444     286.2534    379261.46    204.67523 
  100400     8000    301.47126   -3.7418884    286.36786    377509.34   -475.83809 
  100600     8000    301.77875   -3.7419585    286.48231    373720.91   -922.23662 
  100800     8000    301.37782   -3.7419371    286.59677    375722.48   -615.26205 
  101000     8000    301.93953    -3.742049    286.71122    374432.11   -541.60381 
  101200     8000    301.94908   -3.7420944    286.82568    375700.16   -561.47663 
  101400     8000    301.89958   -3.7421363    286.94014    379708.61    87.078511 
  101600     8000     302.6442   -3.7422927    287.05459    381352.25    237.71929 
  101800     8000    301.79839   -3.7422488    287.16905    377812.47    542.29138 
  102000     8000    300.47669   -3.7421483     287.2835    383568.09    991.22834 
  102200     8000    300.14841   -3.7421803    287.39796    387276.38    861.70789 
  102400     8000    299.99654   -3.7422317    287.51241    393667.55    642.16929 
  102600     8000    299.91041   -3.7422859    287.62687    390088.71    585.04555 
  102800     8000    299.59494   -3.7423058    287.74132     388487.4    545.14096 
  103000     8000    299.20565   -3.7423099    287.85578    390216.32    414.66098 
  103200     8000    299.42161   -3.7423853    287.97024    399622.96    496.01225 
  103400     8000    299.60826   -3.7424533    288.08469    401073.67    497.10148 
  103600     8000    299.15188   -3.7424337    288.19915    399141.04    562.56379 
  103800     8000    298.50893    -3.742386     288.3136    400484.01    492.66677 
  104000     8000    297.83594   -3.7423287    288.42806    409601.44   -80.062697 
  104200     8000    298.02656   -3.7423708    288.54251    406299.76   -260.61965 
  104400     8000    298.12699   -3.7423936    288.65697    404269.51   -714.91629 
  104600     8000    298.18824   -3.7424004    288.77142    408001.99   -356.81901 
  104800     8000    297.77327   -3.7423443    288.88588    412646.83   -357.82587 
  105000     8000    298.22942   -3.7423951    289.00034    413266.15   -509.23759 
  105200     8000    298.21497    -3.742378    289.11479    410931.84    -488.9729 
  105400     8000    298.63312    -3.742412    289.22925    418776.06   -929.01354 
  105600     8000    299.20963   -3.7424563     289.3437    409955.49   -188.56669 
  105800     8000    298.87759   -3.7423884    289.45816    412692.81   -21.122956 
  106000     8000    299.74203   -3.7424736    289.57261    419426.04   -162.19986 
  106200     8000    299.72918   -3.7424405    289.68707     417003.3    310.24258 
  106400     8000    299.86299   -3.7424302    289.80153    419410.71    137.61589 
  106600     8000    298.81769   -3.7422625    289.91598    423756.28    264.27986 
  106800     8000    299.05511   -3.7422575    290.03044    424005.93    558.57918 
  107000     8000    299.02695   -3.7422162    290.14489    416880.19    697.46157 
  107200     8000     300.2603   -3.7423333    290.25935    420062.97    798.90205 
  107400     8000    300.26276   -3.7422858     290.3738    425164.93    756.82219 
  107600     8000    300.25321   -3.7422285    290.48826    423156.59    335.42859 
  107800     8000    300.14983   -3.7421452    290.60271    420612.61    688.48059 
  108000     8000    300.95654   -3.7421742    290.71717    427123.24     572.2143 
  108200     8000    301.33085   -3.7421378    290.83163    431744.82    256.70676 
  108400     8000    301.16883   -3.7420209    290.94608    432765.16   -54.933696 
  108600     8000    302.11402   -3.7420377    291.06054    432159.74    20.132941 
  108800     8000     302.0551   -3.7419232    291.17499    430377.43    209.27745 
  109000     8000    302.48437    -3.741875    291.28945    430849.78    101.53477 
  109200     8000    302.60418   -3.7417887     291.4039    438626.29   -487.83192 
  109400     8000    303.17705   -3.7417596    291.51836    440667.37   -457.16384 
  109600     8000    303.16646   -3.7416641    291.63281    439386.71   -424.12633 
  109800     8000    303.47773   -3.7416211    291.74727    438733.58   -567.50741 
  110000     8000    304.79595   -3.7417166    291.86173    442680.65   -422.54968 
  110200     8000    305.00647   -3.7416827    291.97618    445088.34   -205.99657 
  110400     8000    304.39702   -3.7415584    292.09064    447792.67   -259.82241 
  110600     8000    305.21784   -3.7416299    292.20509    444082.38    170.84332 
  110800     8000    304.59343   -3.7415335    292.31955    447365.25   -11.937788 
  111000     8000    305.06235   -3.7415888      292.434    448781.45    104.23584 
  111200     8000     305.8211   -3.7416964    292.54846    443264.42    324.35939 
  111400     8000    304.73919   -3.7415829    292.66291    443534.27    211.11264 
  111600     8000    304.84323   -3.7416342    292.77737    445208.65    415.01553 
  111800     8000    304.83429   -3.7416867    292.89183    445748.65    491.21858 
  112000     8000    305.05175   -3.7417812    293.00628    445541.13    573.58804 
  112200     8000    304.51302   -3.7417892    293.12074    447228.09    705.14403 
  112400     8000    303.66975    -3.741767    293.23519    452418.36    763.55471 
  112600     8000    303.56843   -3.7418442    293.34965    453507.83    893.21059 
  112800     8000    302.85112    -3.741843     293.4641    457735.26    622.92717 
  113000     8000    302.42793   -3.7418713    293.57856    455932.66    328.56294 
  113200     8000      301.624   -3.7418385    293.69301    461157.73    304.85276 
  113400     8000    302.07182   -3.7419567    293.80747    465053.88   -111.69434 
  113600     8000    302.87383   -3.7421045    293.92193    466197.16   -378.93578 
  113800     8000    301.97087   -3.7420195    294.03638    469534.34   -187.10766 
  114000     8000    301.75073   -3.7420183    294.15084    470140.97   -118.58993 
  114200     8000    301.41124   -3.7419972    294.26529    472679.26   -180.05305 
  114400     8000    301.56416   -3.7420344    294.37975    473314.22   -164.08186 
  114600     8000    300.54262   -3.7419181     294.4942    479154.79   -333.54179 
  114800     8000    301.39696   -3.7420401    294.60866    478138.67   -175.25852 
  115000     8000    300.99129   -3.7420014    294.72311    480763.25   -523.76206 
  115200     8000    301.11666   -3.7420261    294.83757    483405.93   -474.65631 
  115400     8000    300.72706   -3.7419858    294.95203    480724.46   -549.74766 
  115600     8000    301.84065   -3.7421408    295.06648     486176.2   -122.75356 
  115800     8000    301.89447   -3.7421672    295.18094    484178.03    96.696037 
  116000     8000    301.48334   -3.7421397    295.29539     485120.3    320.34645 
  116200     8000    301.69048   -3.7421984    295.40985    486428.19    95.641532 
  116400     8000    301.11376   -3.7421557     295.5243    484720.43    539.79846 
  116600     8000    301.06834   -3.7421913    295.63876    484478.87    613.17665 
  116800     8000    300.76369   -3.7421962    295.75322     490689.5    609.97818 
  117000     8000    300.60809    -3.742222    295.86767    489748.12    345.73074 
  117200     8000     300.2728   -3.7422211    295.98213    494832.37    850.11247 
  117400     8000    300.41381   -3.7422888    296.09658    498438.77    492.17774 
  117600     8000    299.64017   -3.7422327    296.21104    496620.11     390.6522 
  117800     8000    300.05488   -3.7423281    296.32549    507114.69    2.3368127 
  118000     8000    299.70151   -3.7423178    296.43995    504858.17     238.4836 
  118200     8000    299.82494    -3.742371     296.5544    513054.65    29.137194 
  118400     8000    299.54129   -3.7423669    296.66886    510849.05   -83.018078 
  118600     8000    298.37746    -3.742246    296.78332    512400.95   -267.37754 
  118800     8000    299.01827    -3.742353    296.89777    515777.44    -269.2863 
  119000     8000    299.04503   -3.7423781    297.01223    514802.27   -292.33569 
  119200     8000    298.47026   -3.7423226    297.12668    521694.87   -562.79147 
  119400     8000    298.73728   -3.7423679    297.24114     517435.4   -504.65329 
  119600     8000    298.98946   -3.7424092    297.35559    518862.35   -29.773811 
  119800     8000    298.69388   -3.7423839    297.47005    520766.61   -201.21613 
  120000     8000    299.21895   -3.7424591     297.5845    525278.48   -194.14976 
  120200     8000    298.37728   -3.7423552    297.69896    526993.31    79.430135 
  120400     8000    299.39766   -3.7424938    297.81342    526339.64     102.2374 
  120600     8000    299.01123    -3.742449    297.92787    524390.21      183.811 
  120800     8000    299.15807   -3.7424729    298.04233    528194.72    328.38228 
  121000     8000    298.81479    -3.742434    298.15678    527602.92    235.75737 
  121200     8000    299.03776   -3.7424654    298.27124    529657.38    295.32854 
  121400     8000     299.2169   -3.7424901    298.38569    529215.53     417.5834 
  121600     8000    299.29431   -3.7425019    298.50015     534688.2     392.3718 
  121800     8000    299.23926   -3.7424933     298.6146    528063.03    512.58487 
  122000     8000     298.9835    -3.742458    298.72906    526063.12    267.51858 
  122200     8000    298.79009   -3.7424235    298.84352     533377.6    471.68923 
  122400     8000    298.41143   -3.7423643    298.95797    533281.57      408.923 
  122600     8000    297.83897   -3.7422739    299.07243    535860.82   -11.572088 
  122800     8000    298.47078   -3.7423254    299.18688    538562.28   -168.16832 
  123000     8000     298.8991   -3.7423415    299.30134     538250.8   -555.56772 
  123200     8000    299.86021   -3.7424129    299.41579    541344.12   -412.21822 
  123400     8000    299.72766   -3.7423377    299.53025    542831.09   -282.58113 
  123600     8000    300.04176   -3.7423149     299.6447    550251.68   -27.745374 
  123800     8000     300.0656   -3.7422521    299.75916    547644.25    45.352812 
  124000     8000    299.61786   -3.7421237    299.87362    551659.27    8.8900496 
  124200     8000    299.25705    -3.742001    299.98807    548052.63   -184.28315 
  124400     8000    300.27268   -3.7420499    300.10253     550813.9   -727.19314 
  124600     8000    300.64582    -3.742005    300.21698    552633.52   -647.64783 
  124800     8000    301.15185   -3.7419793    300.33144    556423.53   -400.21974 
  125000     8000    303.41702   -3.7421874    300.44589    554368.92   -79.540731 
  125200     8000    303.14726   -3.7420774    300.56035    561591.98    144.38544 
  125400     8000    302.95675   -3.7419868    300.67481    554499.45    338.11213 
  125600     8000    303.24705   -3.7419683    300.78926    559833.24    482.84733 
  125800     8000    302.89902   -3.7418769    300.90372    555027.42    341.33969 
  126000     8000    302.81121    -3.741824    301.01817    558511.09    11.522838 
  126200     8000    303.18122   -3.7418332    301.13263    559368.13    272.16507 
  126400     8000     303.4687   -3.7418436    301.24708    557294.82    489.44969 
  126600     8000    303.82333   -3.7418748    301.36154    557279.04    334.55641 
  126800     8000    303.07458   -3.7417691    301.47599    563144.16    96.116924 
  127000     8000    303.98939   -3.7418841    301.59045     566533.4    494.06522 
  127200     8000    303.55808    -3.741841    301.70491    566348.83    520.89948 
  127400     8000    302.91685   -3.7417805    301.81936    569341.76    251.26983 
  127600     8000    302.71068   -3.7417812    301.93382    571104.34    225.72084 
  127800     8000    302.85372   -3.7418365    302.04827    585872.63   -48.026148 
  128000     8000    302.32422   -3.7418108    302.16273    576142.88    38.425963 
  128200     8000    302.94423   -3.7419459    302.27718    585453.77   -334.60959 
  128400     8000    302.86215   -3.7419941    302.39164    580908.24   -242.11557 
  128600     8000    302.24705   -3.7419846    302.50609    584412.67    103.66816 
  128800     8000    301.52097    -3.741974    302.62055    588974.21    39.809569 
  129000     8000    300.21713   -3.7418921    302.73501    593874.62   -361.99938 
  129200     8000     299.9582   -3.7419388    302.84946    596411.96   -345.17687 
  129400     8000     300.7891   -3.7421234    302.96392    600766.94    -237.6385 
  129600     8000    299.81468   -3.7420701    303.07837    595513.59   -25.984719 
  129800     8000    300.61111   -3.7422412    303.19283     601734.4   -296.25444 
  130000     8000    300.44305   -3.7422725    303.30728    604546.38    29.095134 
  130200     8000    300.12408   -3.7422809    303.42174    602936.48     241.7395 
  130400     8000    300.37534    -3.742358    303.53619    602343.98    296.37382 
  130600     8000    300.17568   -3.7423697    303.65065     606216.4    274.69447 
  130800     8000    299.78252    -3.742349    303.76511    612239.38    247.96643 
  131000     8000    299.94517   -3.7423933    303.87956    608699.38    592.63517 
  131200     8000    299.52174   -3.7423625    303.99402    615666.59    412.62794 
  131400     8000     298.5079    -3.742248    304.10847    617240.78    370.09875 
  131600     8000    299.75284   -3.7424205    304.22293    618272.72    295.56637 
  131800     8000    300.11829   -3.7424744    304.33738    626213.95    364.15391 
  132000     8000    298.58808   -3.7422819    304.45184    621304.51    66.889379 
  132200     8000    299.18486   -3.7423557    304.56629    628696.09    23.055189 
  132400     8000    298.82822   -3.7423026    304.68075    634198.62    134.86223 
  132600     8000    298.63312   -3.7422701    304.79521    632542.73    4.1577225 
  132800     8000    299.29554   -3.7423436    304.90966    631659.69   -373.27056 
  133000     8000    299.08123   -3.7422949    305.02412    626362.75   -494.10396 
  133200     8000    299.84654   -3.7423682    305.13857    636056.93   -226.06594 
  133400     8000    299.56517   -3.7423095    305.25303    636347.61    17.550683 
  133600     8000    299.67497   -3.7423044    305.36748    635720.99   -60.832538 
  133800     8000    299.64535   -3.7422774    305.48194    636702.53   -193.26296 
  134000     8000    299.32104   -3.7422089    305.59639    640652.76   -63.638209 
  134200     8000    299.66915   -3.7422274    305.71085    641153.72   -1.9277308 
  134400     8000    299.62678   -3.7421942    305.82531    643280.81    -263.3826 
  134600     8000    300.07649   -3.7422184    305.93976    651662.17   -194.41178 
  134800     8000    300.44803   -3.7422319    306.05422    652752.78   -192.59388 
  135000     8000    300.58773   -3.7422134    306.16867    647900.41    216.70788 
  135200     8000    300.91939   -3.7422273    306.28313    649742.14    106.80073 
  135400     8000    300.75413   -3.7421746    306.39758    654722.93    286.68904 
  135600     8000    300.57007   -3.7421217    306.51204    651900.57    512.73727 
  135800     8000    300.69042   -3.7421108     306.6265    661170.53    216.75373 
  136000     8000    300.44339   -3.7420455    306.74095    661962.31    277.30185 
  136200     8000    301.30445    -3.742123    306.85541    666074.22     336.2564 
  136400     8000    301.75451   -3.7421457    306.96986     657987.5    195.30873 
  136600     8000    301.95302   -3.7421299    307.08432    659943.12     142.1256 
  136800     8000    301.99732   -3.7420906    307.19877    667667.31    334.89751 
  137000     8000    302.08633   -3.7420574    307.31323     668448.6    193.11013 
  137200     8000    302.19052   -3.7420213    307.42768    669920.75    116.63273 
  137400     8000    301.97681   -3.7419405    307.54214    674484.96    60.222658 
  137600     8000    302.72357   -3.7419804     307.6566    670697.55   -330.95832 
  137800     8000     302.8512   -3.7419321    307.77105     673476.6   -277.16497 
  138000     8000    302.33738   -3.7418014    307.88551    677074.68   -163.51215 
  138200     8000    302.37986   -3.7417466    307.99996    674072.74   -19.977382 
  138400     8000    302.75587    -3.741739    308.11442     674603.5   -258.07431 
  138600     8000    302.80911   -3.7416887    308.22887     681783.5   -254.95784 
  138800     8000    302.99594   -3.7416603    308.34333     669603.5   -45.864689 
  139000     8000    304.10986   -3.7417608    308.45778    677984.98   -184.21992 
  139200     8000    304.94916   -3.7418303    308.57224    687349.77   -87.534027 
  139400     8000    304.53418   -3.7417482     308.6867    691486.62   -180.48358 
  139600     8000    304.55403   -3.7417299    308.80115    689414.67    5.8952298 
  139800     8000    305.05047    -3.741787    308.91561    689781.95    113.56114 
  140000     8000     305.1089   -3.7418024    309.03006    694835.55    330.67763 
  140200     8000    303.42884   -3.7416105    309.14452    690010.44    329.53761 
  140400     8000    304.71704   -3.7418155    309.25897    697814.47    432.95013 
  140600     8000    304.11356   -3.7417922    309.37343    698924.65    350.70355 
  140800     8000    303.68542   -3.7418052    309.48788     697231.5    259.58664 
  141000     8000    302.89446   -3.7417821    309.60234       702774    149.31465 
  141200     8000    302.36409   -3.7418015     309.7168    702571.93    173.86389 
  141400     8000    302.21058   -3.7418779    309.83125    707649.58    292.15692 
  141600     8000     302.1835   -3.7419768    309.94571    701451.13    41.094508 
  141800     8000    301.88734   -3.7420341    310.06016     701395.7     80.24884 
  142000     8000    301.90652   -3.7421277    310.17462    700199.82    122.94348 
  142200     8000    301.46868   -3.7421554    310.28907    707122.02    15.030662 
  142400     8000    300.81578    -3.742143    310.40353    707040.66   -2.4416983 
  142600     8000     300.6195   -3.7421787    310.51798    706225.72   -102.57067 
  142800     8000    300.54327   -3.7422185    310.63244    711036.26   -116.88055 
  143000     8000    300.13227   -3.7422066     310.7469    707195.47    -287.6171 
  143200     8000    299.24125   -3.7421218    310.86135    710032.29   -299.88588 
  143400     8000     299.3072   -3.7421546    310.97581    712921.57   -223.00503 
  143600     8000      299.862   -3.7422471    311.09026    719483.33   -282.73538 
  143800     8000    299.82721   -3.7422578    311.20472    715085.27   -357.37324 
  144000     8000    299.30612   -3.7422015    311.31917    714958.44   -244.76841 
  144200     8000    300.01895   -3.7423047    311.43363    716508.64   -10.616531 
  144400     8000    299.79165   -3.7422894    311.54808     719634.3   -41.766215 
  144600     8000    301.14819   -3.7424768    311.66254    716421.95    150.88196 
  144800     8000    300.75919   -3.7424415      311.777    718034.89    318.70497 
  145000     8000    299.90507   -3.7423482    311.89145    719343.96    260.93981 
  145200     8000    299.95898    -3.742371    312.00591    718406.82    236.33954 
  145400     8000    299.31411    -3.742302    312.12036    721991.82    671.80204 
  145600     8000     298.8451   -3.7422639    312.23482    720639.79    253.93494 
  145800     8000    299.99391   -3.7424246    312.34927    727226.64    255.34467 
  146000     8000    299.49358   -3.7423713    312.46373    727655.06    403.26584 
  146200     8000    299.69034   -3.7424102    312.57819    730043.75    302.44382 
  146400     8000    299.61543   -3.7424113    312.69264    735674.37     359.0995 
  146600     8000    299.41935   -3.7423974     312.8071    736511.13    81.090216 
  146800     8000    298.68724   -3.7423064    312.92155    744917.85    178.55652 
  147000     8000    299.27966   -3.7423866    313.03601    744665.96    20.785409 
  147200     8000    298.80405    -3.742323    313.15046    747550.55   -398.78101 
  147400     8000    299.30261   -3.7423737    313.26492    751715.63   -160.83193 
  147600     8000    299.44187   -3.7423809    313.37937    751937.73   -273.52204 
  147800     8000    299.03004   -3.7423117    313.49383    750414.36   -153.75737 
  148000     8000    298.87761   -3.7422765    313.60829    757414.22    128.97422 
  148200     8000    299.57139   -3.7423531    313.72274    751677.84   -93.344536 
  148400     8000    297.97025   -3.7421252     313.8372    759412.91   -180.23991 
  148600     8000    298.71586   -3.7421945    313.95165    756315.52   -126.88489 
  148800     8000    299.42101    -3.742255    314.06611    758582.21   -80.566467 
  149000     8000    299.44552   -3.7422232    314.18056    763712.89   -414.28256 
  149200     8000    300.34583   -3.7422915    314.29502    766083.99   -11.460507 
  149400     8000    300.10941   -3.7422168    314.40947    759745.44    258.36593 
  149600     8000    300.65225    -3.742244    314.52393    766539.31    162.25957 
  149800     8000    300.24684    -3.742142    314.63839    769526.73     322.1638 
  150000     8000    300.63932   -3.7421421    314.75284     767758.2    500.82022 
Loop time of 946.141 on 4 procs for 150000 steps with 8000 atoms

Pair  time (%) = 729.999 (77.1554)
Neigh time (%) = 14.2351 (1.50455)
Comm  time (%) = 171.772 (18.155)
Outpt time (%) = 0.200909 (0.0212345)
Other time (%) = 29.9338 (3.16378)

Nlocal:    2000 ave 2840 max 786 min
Histogram: 1 0 0 1 0 0 0 0 0 2
Nghost:    376.25 ave 503 max 252 min
Histogram: 2 0 0 0 0 0 0 0 0 2
Neighs:    64420 ave 92496 max 25434 min
Histogram: 1 0 0 1 0 0 0 0 0 2

Total # of neighbors = 257680
Ave neighs/atom = 32.21
Neighbor list builds = 3989
Dangerous builds = 0

