LAMMPS (29 Jan 2012)
Lattice spacing in x,y,z = 4.08 5.76999 5.76999
Created orthogonal box = (0 0 0) to (40.8 28.85 230.8)
  1 by 1 by 4 MPI processor grid
Created 16310 atoms
1600 atoms in group del1
2000 atoms in group del2
2155 atoms in group del3
2586 atoms in group del4
Deleted 1600 atoms, new total = 14710
Deleted 2000 atoms, new total = 12710
Deleted 2155 atoms, new total = 10555
Deleted 2555 atoms, new total = 8000
Setting up run ...
Memory usage per processor = 2.24444 Mbytes
Step Atoms Temp PotEng Lx Ly Lz Pzz Press 
       0     8000    299.97374   -3.7767455         40.8    28.850057    230.79965   -24030.671   -20049.419 
     200     8000    205.03165   -3.7649656         40.8    28.849957    227.94236    1307.3738   -1160.4292 
     400     8000    212.18841   -3.7660277         40.8    28.849957    229.14491    237.85764   -250.93648 
     600     8000    210.20825   -3.7655392         40.8    28.928979    230.09797   -5740.6733    -4237.219 
     800     8000    215.13252   -3.7661031         40.8    28.849957    228.29947    1415.8366    760.04325 
    1000     8000    217.43575   -3.7662283         40.8    28.851268    228.03036    2731.7681    2621.9451 
    1200     8000    216.69489   -3.7659663         40.8    28.849957    228.38681    3048.6761    3069.0152 
    1400     8000    217.12325    -3.765836         40.8    28.881083    229.17958    2564.1166    2985.0266 
    1600     8000    215.64686   -3.7654633         40.8    28.901857    229.29785    1579.0088    2330.9276 
    1800     8000    216.67213   -3.7654189         40.8    28.849957    228.49262    2079.9406    1882.5176 
    2000     8000     218.8937   -3.7655035         40.8    28.894391    228.39677    1174.1354    1026.9972 
    2200     8000     215.2857   -3.7648447         40.8    29.077433     228.6689    -296.6607    -466.9536 
    2400     8000    217.91195   -3.7649872         40.8    28.849957     228.9634   -1089.4464   -1327.1325 
    2600     8000     217.7426   -3.7647744         40.8    28.921471    229.30032   -1791.3783   -1380.3111 
    2800     8000    219.29734    -3.764791         40.8    28.849957    228.92728   -1319.7687   -1425.3423 
    3000     8000    218.65078   -3.7645043         40.8    28.949039    228.70247   -1309.3454   -1494.9396 
    3200     8000    216.50627   -3.7640347         40.8    28.884662    228.64208    -1247.971   -1491.7229 
    3400     8000     219.9195   -3.7642975         40.8    28.860593    228.76104   -321.23774   -598.42133 
    3600     8000    222.79825   -3.7644661         40.8    28.966985    229.07074   -539.74818   -355.99218 
    3800     8000    224.78234   -3.7645254         40.8    28.938764    229.01298   -388.04894   -311.58357 
    4000     8000    222.85585   -3.7640839         40.8    28.960595    228.71039    67.241049    29.523543 
    4200     8000     222.6333    -3.763868         40.8     28.87419      228.563    1331.5782    996.38157 
    4400     8000     225.0546   -3.7639882         40.8    29.096105    228.89426    584.77355    831.26916 
    4600     8000    223.81042   -3.7636362         40.8    28.978104    228.86804    1137.9502    1206.3819 
    4800     8000    228.20012   -3.7640105         40.8    28.885356    228.84916    1098.2709    1081.0392 
    5000     8000    227.79001   -3.7637742         40.8    29.030295    228.84087    542.20657    743.99703 
    5200     8000    229.69567   -3.7638253         40.8    28.891777    228.63696    918.04882    688.30909 
    5400     8000    229.55022   -3.7636178         40.8    28.849957    228.92387   -64.808631    64.908107 
    5600     8000    228.97451   -3.7633598         40.8    28.849957    228.88023   -314.76147   -328.70106 
    5800     8000    230.42138   -3.7633546         40.8    28.860631    228.88595   -787.38055   -756.18034 
    6000     8000    232.68389   -3.7634597         40.8    28.929678    228.87021   -773.61524   -801.99837 
    6200     8000    229.20656    -3.762822         40.8     28.92528    228.84311   -835.33901   -986.93551 
    6400     8000    231.31671    -3.762909         40.8     28.95554    228.90133   -530.19931   -645.51867 
    6600     8000    234.41789   -3.7631269         40.8    28.887735    228.97867   -361.37164   -328.62561 
    6800     8000    230.05104   -3.7623741         40.8    28.849957    228.96555   -30.277283    96.107736 
    7000     8000    234.31445   -3.7627419         40.8    28.926367    228.78331    136.40411    106.59966 
    7200     8000    234.99889   -3.7626474         40.8    28.861402    228.79771    420.41018    512.96631 
    7400     8000    233.99195   -3.7623338         40.8    28.857367    228.81567    753.59464    713.94442 
    7600     8000    239.82546   -3.7629058         40.8    28.893193    228.87833    245.98533    317.88981 
    7800     8000      238.481   -3.7625498         40.8    28.916859    228.86959     362.8373    435.58819 
    8000     8000    237.35894    -3.762224         40.8    28.974784    228.83847   -39.717193   -36.480516 
    8200     8000    237.79318   -3.7620997         40.8    28.876444    228.80018     193.6372    204.81267 
    8400     8000     237.0722   -3.7618263         40.8    28.873574     228.8368    130.02515   -15.686268 
    8600     8000    237.20016   -3.7616646         40.8     29.09603    228.92745   -364.12808   -308.74264 
    8800     8000    240.89678   -3.7619654         40.8    28.863583    228.84741    196.78415    72.101856 
    9000     8000    241.72347   -3.7618944         40.8    28.871125     228.8864   -246.09791   -341.97062 
    9200     8000    240.92447   -3.7616151         40.8    28.849957    228.99953   -511.55574   -485.51403 
    9400     8000    240.34779   -3.7613649         40.8    28.849957     228.9543   -8.3065224   -142.16407 
    9600     8000    243.55351   -3.7616055         40.8    28.936523    229.05114   -330.35213   -220.42873 
    9800     8000    241.93734   -3.7612228         40.8    28.954317    228.85159    216.70866    95.322486 
   10000     8000    244.75538   -3.7614148         40.8    29.006258     228.7989   -251.04065    -280.8697 
   10200     8000    244.81004   -3.7612505         40.8    28.849957    228.86349    454.57135    410.65886 
   10400     8000    246.32918   -3.7612749         40.8    28.900249    228.99262    200.17842    375.47524 
   10600     8000     248.5276     -3.76139         40.8    28.854202    228.92345   -64.865062   -85.147821 
   10800     8000    248.03292   -3.7611555         40.8    28.944276    228.86899   -121.80075   -190.37364 
   11000     8000    243.61515   -3.7604143         40.8    28.884501    228.89907    158.14618    163.17725 
   11200     8000    250.96316   -3.7611983         40.8    28.920455    228.89781    244.89302    219.37327 
   11400     8000    246.07754   -3.7603994         40.8    28.947296    228.97094   -154.89949   -218.98227 
   11600     8000    250.29701   -3.7607786         40.8    28.849957    228.97071   -616.61219   -567.40853 
   11800     8000    250.94718   -3.7606978         40.8    28.849957    228.84316   -50.162434   -128.08345 
   12000     8000    249.16468   -3.7603049         40.8    28.936033     228.9216   -234.04054   -227.73632 
   12200     8000    250.44938   -3.7603069         40.8     28.92057    229.03391   -591.77372   -432.24097 
   12400     8000    250.41352   -3.7601399         40.8    29.019918     228.8928    46.477269    -28.69183 
   12600     8000    250.22018    -3.759954         40.8    28.931789    228.93912   -213.98237   -172.28099 
   12800     8000    256.10751   -3.7605546         40.8    28.906922    228.89275    250.73258    309.03728 
   13000     8000    254.39802   -3.7601747         40.8    28.937299    228.76913    1032.3399    893.23804 
   13200     8000    254.19199   -3.7599902         40.8     28.88617    228.94485    108.87468    206.22144 
   13400     8000    255.63682   -3.7600189         40.8    28.977801    228.98902     110.5189    92.294033 
   13600     8000    256.37258   -3.7599574         40.8    28.896064    229.02495   -52.866157   -29.526041 
   13800     8000    256.95096   -3.7598762         40.8    29.005465    228.99099   -31.434272   -57.090983 
   14000     8000    257.08257   -3.7597389         40.8    28.941137    228.91074   -339.60724   -380.47588 
   14200     8000    255.92122   -3.7594349         40.8    28.991766    228.84361    212.31185   -72.933114 
   14400     8000    262.18083    -3.760093         40.8    28.988011     229.0484   -480.60731   -413.44955 
   14600     8000    256.73647   -3.7592361         40.8    28.941108    229.02917   -285.03202   -261.65743 
   14800     8000    255.49822   -3.7589248         40.8    28.964081     228.8895    83.411964    31.620617 
   15000     8000    257.30473   -3.7590093         40.8    28.849957     228.9175    359.43465    433.56072 
   15200     8000    259.00802     -3.75908         40.8    28.879333    228.89949    438.28731    454.40589 
   15400     8000    263.95409   -3.7595738         40.8    28.914039    228.93212    324.61988    267.00703 
   15600     8000    266.75189   -3.7597881         40.8    28.849957    229.00577    122.38217    291.11881 
   15800     8000    260.01241   -3.7587721         40.8    28.849957    228.86225    467.71654    383.84984 
   16000     8000    260.35797   -3.7586716         40.8    28.853861    228.95637   -378.67906   -319.73304 
   16200     8000    261.03113    -3.758615         40.8    28.862953     229.0119   -422.53308   -415.85843 
   16400     8000    258.99971   -3.7582089         40.8    28.849957    228.97755   -2.4685123   -47.491204 
   16600     8000    261.27671   -3.7583617         40.8    28.920831    229.04157   -213.21142   -103.92156 
   16800     8000    262.91915   -3.7584351         40.8    28.906309    228.97369   -4.4875698    40.770866 
   17000     8000    263.15407   -3.7583253         40.8     28.89012    228.83568    248.35725    167.41023 
   17200     8000    264.76879   -3.7583974         40.8    28.879285    228.88622    271.98189    238.09096 
   17400     8000    262.87956   -3.7580151         40.8    28.864687    229.05998   -12.828798    131.74944 
   17600     8000    267.53233    -3.758482         40.8    28.869591     229.0283   -255.30394   -176.82475 
   17800     8000    266.16014   -3.7581677         40.8    28.849957    228.96731   -62.383028   -76.950198 
   18000     8000    267.51802   -3.7582098         40.8    28.881426    228.97142   -151.70016   -206.23508 
   18200     8000    266.88269   -3.7579937         40.8    28.930381    228.98878   -210.49138   -185.20768 
   18400     8000    269.61856   -3.7582167         40.8    28.869316    229.05762    -36.68012   -45.427931 
   18600     8000    269.85797   -3.7581164         40.8    28.864228    229.12256   -237.34962   -104.69601 
   18800     8000    269.14764   -3.7578951         40.8    28.849957     228.9597   -51.857321   -65.205389 
   19000     8000    271.49487   -3.7580697         40.8    28.849957     228.8722    44.016887   -104.47627 
   19200     8000    271.41934   -3.7579331         40.8    28.849957    228.92681    157.56227    177.88364 
   19400     8000     271.8388   -3.7578617         40.8    28.849957    229.04467    412.91359    491.24459 
   19600     8000    269.25639    -3.757404         40.8    28.936029    229.02134   -18.757896    74.265133 
   19800     8000    273.12338   -3.7577789         40.8    28.931195    228.86191    118.80469    56.767316 
   20000     8000    274.69173   -3.7578593         40.8     28.87977    228.91116    435.41014     299.7913 
Loop time of 90.8458 on 4 procs for 20000 steps with 8000 atoms

Pair  time (%) = 79.1085 (87.0799)
Neigh time (%) = 1.43553 (1.58019)
Comm  time (%) = 5.73903 (6.31733)
Outpt time (%) = 0.0397825 (0.0437913)
Other time (%) = 4.523 (4.97877)

Nlocal:    2000 ave 2008 max 1989 min
Histogram: 1 0 0 0 0 0 2 0 0 1
Nghost:    468 ave 474 max 463 min
Histogram: 1 0 1 0 0 1 0 0 0 1
Neighs:    65250 ave 65599 max 64852 min
Histogram: 1 0 0 0 1 0 1 0 0 1

Total # of neighbors = 261000
Ave neighs/atom = 32.625
Neighbor list builds = 420
Dangerous builds = 0
WARNING: New thermo_style command, previous thermo_modify settings will be lost (output.cpp:471)
Setting up run ...
Memory usage per processor = 2.70311 Mbytes
Step Atoms ThermoAv ThermoAv Lz Volume Pzz 
       0     8000            0            0    228.91116    269526.73    435.73009 
     200     8000    271.03019   -3.7573663    228.93405    269607.03    174.50389 
     400     8000    272.16977   -3.7574289    228.95694    270592.51    367.04646 
     600     8000    272.32636   -3.7573033    228.97983    269891.57   -411.44341 
     800     8000    273.39398   -3.7572509    229.00272    270009.85   -498.51035 
    1000     8000    274.58123   -3.7572039    229.02561    270121.78   -59.699052 
    1200     8000    274.75774   -3.7570442     229.0485    269986.28    260.90344 
    1400     8000     275.1944   -3.7569365     229.0714    269634.95    87.024011 
    1600     8000    276.02727   -3.7568837    229.09429    269921.07   -476.50365 
    1800     8000    276.25612   -3.7567432    229.11718    269958.05   -93.690947 
    2000     8000    277.05862   -3.7566648    229.14007    271009.16   -62.723995 
    2200     8000    277.66764    -3.756548    229.16296    270404.45    43.986912 
    2400     8000    278.46069   -3.7564455    229.18585       269898   -806.22115 
    2600     8000    280.17883   -3.7564549    229.20874    271142.07   -571.99793 
    2800     8000    280.03864   -3.7562222    229.23163    270600.86   -122.62896 
    3000     8000    282.01323   -3.7562626    229.25452    270066.15   -538.69482 
    3200     8000    282.57639   -3.7561192    229.27742    271333.37   -207.61397 
    3400     8000    282.71878   -3.7559216    229.30031    270666.26   -65.482855 
    3600     8000    283.43709   -3.7557992     229.3232    270447.38     302.7245 
    3800     8000    283.50699   -3.7555932    229.34609    269958.29   -103.38672 
    4000     8000    284.62121   -3.7555223    229.36898    271848.31   -850.46297 
    4200     8000    285.22724   -3.7553851    229.39187    270945.33   -1250.5703 
    4400     8000    286.30389   -3.7553088    229.41476    270457.56   -975.77311 
    4600     8000    287.80435   -3.7552889    229.43765    270082.86   -911.22662 
    4800     8000    288.58785   -3.7551784    229.46054    270093.01   -574.28085 
    5000     8000    288.83916   -3.7550018    229.48344    270119.96   -295.74537 
    5200     8000    289.86282   -3.7549274    229.50633     270369.7   -573.86426 
    5400     8000    289.92882   -3.7547319    229.52922    270173.85   -592.17088 
    5600     8000    290.80314   -3.7546439    229.55211    270200.79   -920.50056 
    5800     8000    291.64594   -3.7545541      229.575    270815.03   -1085.2355 
    6000     8000     292.9646   -3.7545283    229.59789    270254.68   -1241.3891 
    6200     8000    293.59314   -3.7544163    229.62078    270847.73   -679.67334 
    6400     8000    294.83657   -3.7543891    229.64367    270570.85   -396.56409 
    6600     8000    294.24073   -3.7541284    229.66656    270663.74   -649.88531 
    6800     8000    295.45974    -3.754106    229.68946    270942.46   -702.91175 
    7000     8000    295.77893   -3.7539713    229.71235     272202.4   -590.86888 
    7200     8000    296.05806   -3.7538367    229.73524    271304.15   -1043.9011 
    7400     8000     297.5381    -3.753861    229.75813    270607.99   -1083.0895 
    7600     8000    297.77515   -3.7537304    229.78102    270965.05   -1628.7577 
    7800     8000    298.63418   -3.7536842    229.80391    270687.37   -1363.8549 
    8000     8000     299.0121   -3.7535821     229.8268    271731.65   -1162.5422 
    8200     8000    299.24345   -3.7534675    229.84969    272188.75   -1152.5989 
    8400     8000    299.64433   -3.7533811    229.87258    271624.62    -865.4199 
    8600     8000     299.9586   -3.7532903    229.89548    271566.74   -612.36704 
    8800     8000    300.69747   -3.7532615    229.91837     272041.6   -1161.6955 
    9000     8000    301.26086   -3.7532154    229.94126    272456.44   -934.55366 
    9200     8000    300.85019   -3.7530507    229.96415    271543.79   -1404.1446 
    9400     8000     301.5052   -3.7530297    229.98704    271735.86   -1285.1746 
    9600     8000    303.08119   -3.7531352    230.00993    272265.99   -1003.0147 
    9800     8000    302.30488   -3.7529443    230.03282    271858.46   -1069.7353 
   10000     8000    302.76208   -3.7529211    230.05571    271899.02   -1602.2138 
   10200     8000    303.26308   -3.7529107     230.0786    272231.45   -1571.6658 
   10400     8000    303.22094   -3.7528387     230.1015    271716.36   -1134.7289 
   10600     8000    302.87267   -3.7527369    230.12439    272143.84   -1743.4208 
   10800     8000     303.4079   -3.7527568    230.14728    272597.73   -1972.5229 
   11000     8000    303.64533   -3.7527474    230.17017    272478.24   -1549.9064 
   11200     8000    304.03725   -3.7527684    230.19306     273724.4   -1483.3765 
   11400     8000    303.61943   -3.7526944    230.21595    272174.56   -1394.9705 
   11600     8000    304.31167   -3.7527734    230.23884    272221.93   -1727.8337 
   11800     8000    303.07667   -3.7526129    230.26173    273443.12   -1512.3549 
   12000     8000    303.88283   -3.7527265    230.28462    271806.56   -1614.1216 
   12200     8000     304.0266   -3.7527644    230.30752    271500.47   -1491.9332 
   12400     8000    302.70526   -3.7526228    230.33041    272731.78   -1991.5705 
   12600     8000    303.31731   -3.7527394     230.3533    272359.13   -1659.2735 
   12800     8000     303.3062   -3.7527852    230.37619    273314.14   -1663.3584 
   13000     8000    302.86286   -3.7527833    230.39908    271905.84   -2097.1705 
   13200     8000    302.65622   -3.7528186    230.42197    272481.69   -1525.0795 
   13400     8000    302.51279   -3.7528696    230.44486    271811.71   -2045.8092 
   13600     8000     302.0132   -3.7528789    230.46775    271982.66   -2111.8029 
   13800     8000    301.83647   -3.7529337    230.49064    271929.84   -2307.8823 
   14000     8000    301.07449   -3.7529157    230.51354    272263.69   -2529.7117 
   14200     8000    300.60353   -3.7529368    230.53643    271359.41   -2760.6449 
   14400     8000    301.05606   -3.7530776    230.55932    271386.35   -2226.6035 
   14600     8000    299.82793   -3.7530015    230.58221    271988.88   -1709.4448 
   14800     8000    299.95843   -3.7531005     230.6051    271440.24   -1851.7905 
   15000     8000    300.25105    -3.753218    230.62799    272458.17   -2348.7907 
   15200     8000    299.68612   -3.7532206    230.65088    272714.74   -2663.7321 
   15400     8000    299.02897   -3.7532074    230.67377    272374.61   -2409.4039 
