LAMMPS (29 Jan 2012)
Lattice spacing in x,y,z = 4.08 5.76999 5.76999
Created orthogonal box = (0 0 0) to (40.8 28.85 230.8)
  1 by 1 by 4 MPI processor grid
Created 16310 atoms
1600 atoms in group del1
2000 atoms in group del2
2155 atoms in group del3
2586 atoms in group del4
Deleted 1600 atoms, new total = 14710
Deleted 2000 atoms, new total = 12710
Deleted 2155 atoms, new total = 10555
Deleted 2555 atoms, new total = 8000
Setting up run ...
Memory usage per processor = 2.24444 Mbytes
Step Atoms Temp PotEng Lx Ly Lz Pzz Press 
       0     8000    299.97374   -3.7767455         40.8    28.850057    230.79965   -24030.671   -20049.419 
     200     8000    205.03165   -3.7649656         40.8    28.849957    227.94236    1307.3738   -1160.4292 
     400     8000    212.18841   -3.7660277         40.8    28.849957    229.14491    237.85764   -250.93648 
     600     8000    210.20825   -3.7655392         40.8    28.928979    230.09797   -5740.6733    -4237.219 
     800     8000    215.13252   -3.7661031         40.8    28.849957    228.29947    1415.8366    760.04325 
    1000     8000    217.43575   -3.7662283         40.8    28.851268    228.03036    2731.7681    2621.9451 
    1200     8000    216.69489   -3.7659663         40.8    28.849957    228.38681    3048.6761    3069.0152 
    1400     8000    217.12325    -3.765836         40.8    28.881083    229.17958    2564.1166    2985.0266 
    1600     8000    215.64686   -3.7654633         40.8    28.901857    229.29785    1579.0088    2330.9276 
    1800     8000    216.67213   -3.7654189         40.8    28.849957    228.49262    2079.9406    1882.5176 
    2000     8000     218.8937   -3.7655035         40.8    28.894391    228.39677    1174.1354    1026.9972 
    2200     8000     215.2857   -3.7648447         40.8    29.077433     228.6689    -296.6607    -466.9536 
    2400     8000    217.91195   -3.7649872         40.8    28.849957     228.9634   -1089.4464   -1327.1325 
    2600     8000     217.7426   -3.7647744         40.8    28.921471    229.30032   -1791.3783   -1380.3111 
    2800     8000    219.29734    -3.764791         40.8    28.849957    228.92728   -1319.7687   -1425.3423 
    3000     8000    218.65078   -3.7645043         40.8    28.949039    228.70247   -1309.3454   -1494.9396 
    3200     8000    216.50627   -3.7640347         40.8    28.884662    228.64208    -1247.971   -1491.7229 
    3400     8000     219.9195   -3.7642975         40.8    28.860593    228.76104   -321.23774   -598.42133 
    3600     8000    222.79825   -3.7644661         40.8    28.966985    229.07074   -539.74818   -355.99218 
    3800     8000    224.78234   -3.7645254         40.8    28.938764    229.01298   -388.04894   -311.58357 
    4000     8000    222.85585   -3.7640839         40.8    28.960595    228.71039    67.241049    29.523543 
    4200     8000     222.6333    -3.763868         40.8     28.87419      228.563    1331.5782    996.38157 
    4400     8000     225.0546   -3.7639882         40.8    29.096105    228.89426    584.77355    831.26916 
    4600     8000    223.81042   -3.7636362         40.8    28.978104    228.86804    1137.9502    1206.3819 
    4800     8000    228.20012   -3.7640105         40.8    28.885356    228.84916    1098.2709    1081.0392 
    5000     8000    227.79001   -3.7637742         40.8    29.030295    228.84087    542.20657    743.99703 
    5200     8000    229.69567   -3.7638253         40.8    28.891777    228.63696    918.04882    688.30909 
    5400     8000    229.55022   -3.7636178         40.8    28.849957    228.92387   -64.808631    64.908107 
    5600     8000    228.97451   -3.7633598         40.8    28.849957    228.88023   -314.76147   -328.70106 
    5800     8000    230.42138   -3.7633546         40.8    28.860631    228.88595   -787.38055   -756.18034 
    6000     8000    232.68389   -3.7634597         40.8    28.929678    228.87021   -773.61524   -801.99837 
    6200     8000    229.20656    -3.762822         40.8     28.92528    228.84311   -835.33901   -986.93551 
    6400     8000    231.31671    -3.762909         40.8     28.95554    228.90133   -530.19931   -645.51867 
    6600     8000    234.41789   -3.7631269         40.8    28.887735    228.97867   -361.37164   -328.62561 
    6800     8000    230.05104   -3.7623741         40.8    28.849957    228.96555   -30.277283    96.107736 
    7000     8000    234.31445   -3.7627419         40.8    28.926367    228.78331    136.40411    106.59966 
    7200     8000    234.99889   -3.7626474         40.8    28.861402    228.79771    420.41018    512.96631 
    7400     8000    233.99195   -3.7623338         40.8    28.857367    228.81567    753.59464    713.94442 
    7600     8000    239.82546   -3.7629058         40.8    28.893193    228.87833    245.98533    317.88981 
    7800     8000      238.481   -3.7625498         40.8    28.916859    228.86959     362.8373    435.58819 
    8000     8000    237.35894    -3.762224         40.8    28.974784    228.83847   -39.717193   -36.480516 
    8200     8000    237.79318   -3.7620997         40.8    28.876444    228.80018     193.6372    204.81267 
    8400     8000     237.0722   -3.7618263         40.8    28.873574     228.8368    130.02515   -15.686268 
    8600     8000    237.20016   -3.7616646         40.8     29.09603    228.92745   -364.12808   -308.74264 
    8800     8000    240.89678   -3.7619654         40.8    28.863583    228.84741    196.78415    72.101856 
    9000     8000    241.72347   -3.7618944         40.8    28.871125     228.8864   -246.09791   -341.97062 
    9200     8000    240.92447   -3.7616151         40.8    28.849957    228.99953   -511.55574   -485.51403 
    9400     8000    240.34779   -3.7613649         40.8    28.849957     228.9543   -8.3065224   -142.16407 
    9600     8000    243.55351   -3.7616055         40.8    28.936523    229.05114   -330.35213   -220.42873 
    9800     8000    241.93734   -3.7612228         40.8    28.954317    228.85159    216.70866    95.322486 
   10000     8000    244.75538   -3.7614148         40.8    29.006258     228.7989   -251.04065    -280.8697 
   10200     8000    244.81004   -3.7612505         40.8    28.849957    228.86349    454.57135    410.65886 
   10400     8000    246.32918   -3.7612749         40.8    28.900249    228.99262    200.17842    375.47524 
   10600     8000     248.5276     -3.76139         40.8    28.854202    228.92345   -64.865062   -85.147821 
   10800     8000    248.03292   -3.7611555         40.8    28.944276    228.86899   -121.80075   -190.37364 
   11000     8000    243.61515   -3.7604143         40.8    28.884501    228.89907    158.14618    163.17725 
   11200     8000    250.96316   -3.7611983         40.8    28.920455    228.89781    244.89302    219.37327 
   11400     8000    246.07754   -3.7603994         40.8    28.947296    228.97094   -154.89949   -218.98227 
   11600     8000    250.29701   -3.7607786         40.8    28.849957    228.97071   -616.61219   -567.40853 
   11800     8000    250.94718   -3.7606978         40.8    28.849957    228.84316   -50.162434   -128.08345 
   12000     8000    249.16468   -3.7603049         40.8    28.936033     228.9216   -234.04054   -227.73632 
   12200     8000    250.44938   -3.7603069         40.8     28.92057    229.03391   -591.77372   -432.24097 
   12400     8000    250.41352   -3.7601399         40.8    29.019918     228.8928    46.477269    -28.69183 
   12600     8000    250.22018    -3.759954         40.8    28.931789    228.93912   -213.98237   -172.28099 
   12800     8000    256.10751   -3.7605546         40.8    28.906922    228.89275    250.73258    309.03728 
   13000     8000    254.39802   -3.7601747         40.8    28.937299    228.76913    1032.3399    893.23804 
   13200     8000    254.19199   -3.7599902         40.8     28.88617    228.94485    108.87468    206.22144 
   13400     8000    255.63682   -3.7600189         40.8    28.977801    228.98902     110.5189    92.294033 
   13600     8000    256.37258   -3.7599574         40.8    28.896064    229.02495   -52.866157   -29.526041 
   13800     8000    256.95096   -3.7598762         40.8    29.005465    228.99099   -31.434272   -57.090983 
   14000     8000    257.08257   -3.7597389         40.8    28.941137    228.91074   -339.60724   -380.47588 
   14200     8000    255.92122   -3.7594349         40.8    28.991766    228.84361    212.31185   -72.933114 
   14400     8000    262.18083    -3.760093         40.8    28.988011     229.0484   -480.60731   -413.44955 
   14600     8000    256.73647   -3.7592361         40.8    28.941108    229.02917   -285.03202   -261.65743 
   14800     8000    255.49822   -3.7589248         40.8    28.964081     228.8895    83.411964    31.620617 
   15000     8000    257.30473   -3.7590093         40.8    28.849957     228.9175    359.43465    433.56072 
   15200     8000    259.00802     -3.75908         40.8    28.879333    228.89949    438.28731    454.40589 
   15400     8000    263.95409   -3.7595738         40.8    28.914039    228.93212    324.61988    267.00703 
   15600     8000    266.75189   -3.7597881         40.8    28.849957    229.00577    122.38217    291.11881 
   15800     8000    260.01241   -3.7587721         40.8    28.849957    228.86225    467.71654    383.84984 
   16000     8000    260.35797   -3.7586716         40.8    28.853861    228.95637   -378.67906   -319.73304 
   16200     8000    261.03113    -3.758615         40.8    28.862953     229.0119   -422.53308   -415.85843 
   16400     8000    258.99971   -3.7582089         40.8    28.849957    228.97755   -2.4685123   -47.491204 
   16600     8000    261.27671   -3.7583617         40.8    28.920831    229.04157   -213.21142   -103.92156 
   16800     8000    262.91915   -3.7584351         40.8    28.906309    228.97369   -4.4875698    40.770866 
   17000     8000    263.15407   -3.7583253         40.8     28.89012    228.83568    248.35725    167.41023 
   17200     8000    264.76879   -3.7583974         40.8    28.879285    228.88622    271.98189    238.09096 
   17400     8000    262.87956   -3.7580151         40.8    28.864687    229.05998   -12.828798    131.74944 
   17600     8000    267.53233    -3.758482         40.8    28.869591     229.0283   -255.30394   -176.82475 
   17800     8000    266.16014   -3.7581677         40.8    28.849957    228.96731   -62.383028   -76.950198 
   18000     8000    267.51802   -3.7582098         40.8    28.881426    228.97142   -151.70016   -206.23508 
   18200     8000    266.88269   -3.7579937         40.8    28.930381    228.98878   -210.49138   -185.20768 
   18400     8000    269.61856   -3.7582167         40.8    28.869316    229.05762    -36.68012   -45.427931 
   18600     8000    269.85797   -3.7581164         40.8    28.864228    229.12256   -237.34962   -104.69601 
   18800     8000    269.14764   -3.7578951         40.8    28.849957     228.9597   -51.857321   -65.205389 
   19000     8000    271.49487   -3.7580697         40.8    28.849957     228.8722    44.016887   -104.47627 
   19200     8000    271.41934   -3.7579331         40.8    28.849957    228.92681    157.56227    177.88364 
   19400     8000     271.8388   -3.7578617         40.8    28.849957    229.04467    412.91359    491.24459 
   19600     8000    269.25639    -3.757404         40.8    28.936029    229.02134   -18.757896    74.265133 
   19800     8000    273.12338   -3.7577789         40.8    28.931195    228.86191    118.80469    56.767316 
   20000     8000    274.69173   -3.7578593         40.8     28.87977    228.91116    435.41014     299.7913 
Loop time of 96.4125 on 4 procs for 20000 steps with 8000 atoms

Pair  time (%) = 82.2748 (85.3362)
Neigh time (%) = 1.46044 (1.51478)
Comm  time (%) = 7.91028 (8.20462)
Outpt time (%) = 0.00891817 (0.00925001)
Other time (%) = 4.75806 (4.93511)

Nlocal:    2000 ave 2008 max 1989 min
Histogram: 1 0 0 0 0 0 2 0 0 1
Nghost:    468 ave 474 max 463 min
Histogram: 1 0 1 0 0 1 0 0 0 1
Neighs:    65250 ave 65599 max 64852 min
Histogram: 1 0 0 0 1 0 1 0 0 1

Total # of neighbors = 261000
Ave neighs/atom = 32.625
Neighbor list builds = 420
Dangerous builds = 0
WARNING: New thermo_style command, previous thermo_modify settings will be lost (output.cpp:471)
Setting up run ...
Memory usage per processor = 2.70311 Mbytes
Step Atoms ThermoAv ThermoAv Lz Volume Pzz 
       0     8000            0            0    228.91116    269526.73    435.73009 
     200     8000    271.03019   -3.7573663    228.93405    269607.03    174.50389 
     400     8000    272.16977   -3.7574289    228.95694    270592.51    367.04646 
     600     8000    272.32636   -3.7573033    228.97983    269891.57   -411.44341 
     800     8000    273.39398   -3.7572509    229.00272    270009.85   -498.51035 
    1000     8000    274.58123   -3.7572039    229.02561    270121.78   -59.699052 
    1200     8000    274.75774   -3.7570442     229.0485    269986.28    260.90344 
    1400     8000     275.1944   -3.7569365     229.0714    269634.95    87.024011 
    1600     8000    276.02727   -3.7568837    229.09429    269921.07   -476.50365 
    1800     8000    276.25612   -3.7567432    229.11718    269958.05   -93.690947 
    2000     8000    277.05862   -3.7566648    229.14007    271009.16   -62.723995 
    2200     8000    277.66764    -3.756548    229.16296    270404.45    43.986912 
    2400     8000    278.46069   -3.7564455    229.18585       269898   -806.22115 
    2600     8000    280.17883   -3.7564549    229.20874    271142.07   -571.99793 
    2800     8000    280.03864   -3.7562222    229.23163    270600.86   -122.62896 
    3000     8000    282.01323   -3.7562626    229.25452    270066.15   -538.69482 
    3200     8000    282.57639   -3.7561192    229.27742    271333.37   -207.61397 
    3400     8000    282.71878   -3.7559216    229.30031    270666.26   -65.482855 
    3600     8000    283.43709   -3.7557992     229.3232    270447.38     302.7245 
    3800     8000    283.50699   -3.7555932    229.34609    269958.29   -103.38672 
    4000     8000    284.62121   -3.7555223    229.36898    271848.31   -850.46297 
    4200     8000    285.22724   -3.7553851    229.39187    270945.33   -1250.5703 
    4400     8000    286.30389   -3.7553088    229.41476    270457.56   -975.77311 
    4600     8000    287.80435   -3.7552889    229.43765    270082.86   -911.22662 
    4800     8000    288.58785   -3.7551784    229.46054    270093.01   -574.28085 
    5000     8000    288.83916   -3.7550018    229.48344    270119.96   -295.74537 
    5200     8000    289.86282   -3.7549274    229.50633     270369.7   -573.86426 
    5400     8000    289.92882   -3.7547319    229.52922    270173.85   -592.17088 
    5600     8000    290.80314   -3.7546439    229.55211    270200.79   -920.50056 
    5800     8000    291.64594   -3.7545541      229.575    270815.03   -1085.2355 
    6000     8000     292.9646   -3.7545283    229.59789    270254.68   -1241.3891 
    6200     8000    293.59314   -3.7544163    229.62078    270847.73   -679.67334 
    6400     8000    294.83657   -3.7543891    229.64367    270570.85   -396.56409 
    6600     8000    294.24073   -3.7541284    229.66656    270663.74   -649.88531 
    6800     8000    295.45974    -3.754106    229.68946    270942.46   -702.91175 
    7000     8000    295.77893   -3.7539713    229.71235     272202.4   -590.86888 
    7200     8000    296.05806   -3.7538367    229.73524    271304.15   -1043.9011 
    7400     8000     297.5381    -3.753861    229.75813    270607.99   -1083.0895 
    7600     8000    297.77515   -3.7537304    229.78102    270965.05   -1628.7577 
    7800     8000    298.63418   -3.7536842    229.80391    270687.37   -1363.8549 
    8000     8000     299.0121   -3.7535821     229.8268    271731.65   -1162.5422 
    8200     8000    299.24345   -3.7534675    229.84969    272188.75   -1152.5989 
    8400     8000    299.64433   -3.7533811    229.87258    271624.62    -865.4199 
    8600     8000     299.9586   -3.7532903    229.89548    271566.74   -612.36703 
    8800     8000    300.69747   -3.7532615    229.91837     272041.6   -1161.6955 
    9000     8000    301.26086   -3.7532154    229.94126    272456.44   -934.55366 
    9200     8000    300.85019   -3.7530507    229.96415    271543.79   -1404.1446 
    9400     8000     301.5052   -3.7530297    229.98704    271735.86   -1285.1745 
    9600     8000    303.08119   -3.7531352    230.00993    272265.99   -1003.0149 
    9800     8000    302.30488   -3.7529443    230.03282    271858.46    -1069.735 
   10000     8000    302.76208   -3.7529211    230.05571    271899.02   -1602.2146 
   10200     8000    303.26308   -3.7529107     230.0786    272231.45   -1571.6659 
   10400     8000    303.22095   -3.7528387     230.1015    271716.36   -1134.7296 
   10600     8000    302.87268   -3.7527369    230.12439    272143.84   -1743.4216 
   10800     8000    303.40789   -3.7527568    230.14728    272597.75   -1972.5224 
   11000     8000     303.6453   -3.7527474    230.17017    272478.23   -1549.9026 
   11200     8000    304.03721   -3.7527684    230.19306     273724.4    -1483.385 
   11400     8000    303.61939   -3.7526944    230.21595    272174.56   -1394.9716 
   11600     8000    304.31157   -3.7527734    230.23884    272221.94   -1727.8416 
   11800     8000    303.07669   -3.7526129    230.26173    273443.13   -1512.3517 
   12000     8000     303.8828   -3.7527265    230.28462    271806.43   -1614.0962 
   12200     8000    304.02659   -3.7527644    230.30752    271500.56   -1491.8721 
   12400     8000    302.70504   -3.7526228    230.33041     272731.8   -1991.6403 
   12600     8000    303.31737   -3.7527394     230.3533       272359   -1659.3967 
   12800     8000    303.30651   -3.7527853    230.37619     273314.3   -1663.6203 
   13000     8000    302.86301   -3.7527834    230.39908    271905.97   -2097.2656 
   13200     8000    302.65494   -3.7528185    230.42197    272481.11     -1524.95 
   13400     8000    302.51264   -3.7528696    230.44486    271811.83   -2045.1999 
   13600     8000    302.01403    -3.752879    230.46775    271936.67   -2112.4506 
   13800     8000    301.83713   -3.7529339    230.49064    271916.75   -2309.5911 
   14000     8000    301.07987   -3.7529163    230.51354    272264.93   -2524.8424 
   14200     8000    300.60952   -3.7529375    230.53643    271359.41   -2756.5747 
   14400     8000    301.05814   -3.7530778    230.55932    271386.35   -2225.5257 
   14600     8000    299.81416   -3.7529995    230.58221    271975.46   -1708.1741 
   14800     8000    299.97031   -3.7531016     230.6051    271440.24   -1863.9729 
   15000     8000    300.25432   -3.7532179    230.62799    272664.24   -2347.0045 
   15200     8000    299.66202    -3.753217    230.65088    272734.45   -2686.3599 
   15400     8000    299.05654   -3.7532102    230.67377    272380.07   -2417.7217 
   15600     8000    299.00412   -3.7532723    230.69666    272556.74   -1988.6801 
   15800     8000    298.08706   -3.7532191    230.71956    272238.71    -2654.399 
   16000     8000     297.7797   -3.7532381    230.74245    272627.62   -2864.4319 
   16200     8000    297.84196   -3.7532992    230.76534    273843.67   -2408.4186 
   16400     8000    297.52011   -3.7533062    230.78823    272461.43   -2755.5337 
   16600     8000    298.00438   -3.7534108    230.81112       272972   -2779.6399 
   16800     8000    297.45962   -3.7533763    230.83401    273063.23   -2966.9209 
   17000     8000     298.2425   -3.7535068     230.8569    273544.94   -2345.8615 
   17200     8000    297.23872   -3.7534007    230.87979    273843.31   -2632.6415 
   17400     8000    296.30415   -3.7532965    230.90268       273473   -3050.6594 
   17600     8000    297.45783    -3.753454    230.92558    274123.09   -2585.4259 
   17800     8000    296.99041   -3.7533956    230.94847     273995.4   -2490.0728 
   18000     8000    297.07512   -3.7534013    230.97136    274514.14   -2453.8969 
   18200     8000    297.33263   -3.7534215    230.99425    273742.33   -2695.3102 
   18400     8000    296.89017   -3.7533428    231.01714    275064.26    -2654.955 
   18600     8000    296.98182   -3.7533263    231.04003    273672.07    -3011.813 
   18800     8000    296.49556   -3.7532272    231.06292    273937.01   -2979.7813 
   19000     8000    297.70378   -3.7533398    231.08581    273844.66   -2889.8911 
   19200     8000    298.11379   -3.7533425     231.1087    274183.83   -3128.7601 
   19400     8000    298.23578   -3.7533008     231.1316     273963.2   -2825.8281 
   19600     8000    298.86249   -3.7533187    231.15449    273823.25    -2612.899 
   19800     8000    298.29711   -3.7531782    231.17738    273550.03   -2320.0719 
   20000     8000    297.94142   -3.7530608    231.20027    273218.54   -2800.1861 
   20200     8000    298.30411   -3.7530314    231.22316     272798.5   -3022.8898 
   20400     8000    298.76118   -3.7530112    231.24605    273230.48   -3240.9989 
   20600     8000     299.0199   -3.7529627    231.26894    273181.88   -3329.4015 
   20800     8000    299.34331   -3.7529215    231.29183    273110.67   -3709.1044 
   21000     8000    300.31206   -3.7529626    231.31472    273667.48   -3557.0119 
   21200     8000    300.27757   -3.7528747    231.33762    273630.66   -3097.3489 
   21400     8000    300.15118   -3.7527768    231.36051    273334.87   -3164.8636 
   21600     8000    300.92503   -3.7527968     231.3834    273578.93   -3054.4209 
   21800     8000    300.49813   -3.7526646    231.40629    273260.69   -2837.8204 
   22000     8000    301.16146   -3.7526772    231.42918    272410.25   -3049.2767 
   22200     8000    300.85071    -3.752567    231.45207    273475.97   -3431.5746 
   22400     8000    301.95561   -3.7526424    231.47496    272834.34   -3418.1665 
   22600     8000    302.28807   -3.7526225    231.49785     272966.5   -3444.6993 
   22800     8000     301.8887   -3.7525127    231.52074    272840.75   -3573.7551 
   23000     8000    301.86512   -3.7524557    231.54364    273280.57   -3469.9632 
   23200     8000    302.92474    -3.752544    231.56653    273191.68   -3206.5782 
   23400     8000    302.05668   -3.7523891    231.58942    273841.57   -3738.4038 
   23600     8000    302.90673   -3.7524608    231.61231    273096.16   -3382.2464 
   23800     8000    302.30839   -3.7523513     231.6352    273117.46   -2979.9732 
   24000     8000    301.75421   -3.7522547    231.65809     273652.4   -3391.6283 
   24200     8000    302.78212   -3.7523679    231.68098    274249.07    -3377.706 
   24400     8000    302.16294   -3.7522751    231.70387    273311.05   -3735.0512 
   24600     8000     302.5454   -3.7523173    231.72676    274342.78   -4040.6198 
   24800     8000    302.58696   -3.7523209    231.74966    274220.86   -3935.0742 
   25000     8000    302.51399   -3.7523171    231.77255    274697.86   -3628.0856 
   25200     8000    302.61911   -3.7523431    231.79544    275025.96   -3465.4272 
   25400     8000    301.85531   -3.7522633    231.81833    273294.41   -3490.5952 
   25600     8000    302.21581   -3.7523357    231.84122     273035.7   -4292.2549 
   25800     8000    301.32971   -3.7522511    231.86411    273230.63   -4312.2688 
   26000     8000    301.57402   -3.7523176      231.887    274377.09   -4121.7987 
   26200     8000    301.41225   -3.7523379    231.90989    274665.35   -4022.7829 
   26400     8000    301.84526   -3.7524396    231.93278    273845.53   -4332.3768 
   26600     8000    301.46349   -3.7524385    231.95568    273380.24    -4409.131 
   26800     8000    300.90292   -3.7524163    231.97857    273838.88   -3579.9571 
   27000     8000    300.61945   -3.7524339    232.00146    275631.19   -3388.3292 
   27200     8000    300.46701   -3.7524693    232.02435    273758.83   -4009.4043 
   27400     8000    299.98196    -3.752461    232.04724    274182.92    -4365.621 
   27600     8000    299.23375   -3.7524175    232.07013    274912.95    -3958.003 
   27800     8000    299.14097   -3.7524573    232.09302    273860.54   -3932.1603 
   28000     8000    299.91536   -3.7526068    232.11591     274500.9   -4334.4768 
   28200     8000    298.97304    -3.752531     232.1388    275746.53   -4633.9035 
   28400     8000    299.84207   -3.7526849     232.1617    273272.48   -4370.5374 
   28600     8000     299.1818   -3.7526385    232.18459    274366.62   -3613.3734 
   28800     8000    298.77017   -3.7526217    232.20748    273607.46   -4096.2171 
   29000     8000    298.61518    -3.752633    232.23037    273470.06    -4375.627 
   29200     8000    297.88552   -3.7525652    232.25326    274622.43   -4274.9232 
   29400     8000    297.92062   -3.7525916    232.27615    274188.98   -4517.2941 
   29600     8000    298.27223    -3.752654    232.29904    273434.15   -4942.7447 
   29800     8000    297.33555   -3.7525437    232.32193    274532.79   -5031.8006 
   30000     8000    298.11917   -3.7526506    232.34482    274366.81   -4465.1242 
   30200     8000    298.35665   -3.7526825    232.36772    273761.81   -4525.0739 
   30400     8000    298.01929   -3.7526348    232.39061    274861.61   -4471.6001 
   30600     8000    298.09716   -3.7526349     232.4135    274208.48    -4361.837 
   30800     8000    297.65232   -3.7525621    232.43639    274177.06   -3903.5014 
   31000     8000    297.22214   -3.7524861    232.45928    274409.76   -4705.1577 
   31200     8000    297.32796   -3.7524711    232.48217    275015.75   -4875.1286 
   31400     8000    297.81442   -3.7524985    232.50506     275129.5   -5544.4235 
   31600     8000    298.50771   -3.7525445    232.52795    274682.71    -5052.317 
   31800     8000    297.92491   -3.7524195    232.55084    276475.44   -4418.9548 
   32000     8000     298.2017   -3.7523994    232.57374    275710.81   -4766.8264 
   32200     8000    298.71537   -3.7524022    232.59663    275482.53   -4652.9086 
   32400     8000    299.02286   -3.7523713    232.61952    275336.52   -4340.9475 
   32600     8000    299.73384   -3.7523863    232.64241    277677.34   -4636.3963 
   32800     8000    299.37001   -3.7522562     232.6653    277105.74   -4998.3464 
   33000     8000    298.93047   -3.7521115    232.68819    277558.48   -4986.6277 
   33200     8000    299.73168   -3.7521241    232.71108    276698.84    -4521.509 
   33400     8000    300.66632   -3.7521536    232.73397    275489.76   -4691.0984 
   33600     8000    300.18243   -3.7519998    232.75686    275229.82   -4734.1245 
   33800     8000    300.15994   -3.7519083    232.77976       276315   -5376.6499 
   34000     8000    300.63709   -3.7518845    232.80265    275682.71   -4909.4522 
   34200     8000    300.90335   -3.7518398    232.82554    275625.23   -5065.4618 
   34400     8000    301.57075   -3.7518534    232.84843    276095.48   -5267.5824 
   34600     8000    301.18089   -3.7517371    232.87132     275754.8   -4685.2598 
   34800     8000     301.7751   -3.7517562    232.89421    275715.91   -4815.6716 
   35000     8000    301.56141   -3.7516781     232.9171    275133.47   -4937.4213 
   35200     8000    301.80701   -3.7516662    232.93999    275154.34   -5117.1718 
   35400     8000    301.82183   -3.7516307    232.96288    276229.38   -5408.0004 
   35600     8000    302.07436   -3.7516313    232.98578    275009.48   -5218.8708 
   35800     8000    302.22269   -3.7516252    233.00867    274815.45    -5016.999 
   36000     8000    302.05073    -3.751584    233.03156    277325.99   -5171.9774 
   36200     8000     302.5482   -3.7516342    233.05445     274781.6   -5146.0721 
   36400     8000    302.05106   -3.7515611    233.07734    274565.89   -4850.1117 
   36600     8000    301.29516   -3.7514603    233.10023    274831.96   -5303.5545 
   36800     8000    302.08919   -3.7515638    233.12312    275513.13   -5423.7997 
   37000     8000    302.18461   -3.7515811    233.14601    276243.07   -5609.4026 
   37200     8000    301.58588   -3.7515124     233.1689    275433.98   -5893.5643 
   37400     8000    301.91626   -3.7515675     233.1918    276692.96   -5472.3898 
   37600     8000    301.60344   -3.7515441    233.21469    277552.68   -5506.4364 
   37800     8000     301.6808   -3.7515746    233.23758    276707.75   -5313.8178 
   38000     8000    301.07715   -3.7515209    233.26047    276265.54   -5443.6075 
   38200     8000    301.58538   -3.7516133    233.28336    276187.03   -5257.6705 
   38400     8000    301.10677    -3.751581    233.30625    275585.51   -5631.6738 
   38600     8000    300.67885   -3.7515578    233.32914    276510.53   -5703.3198 
   38800     8000    300.47756   -3.7515652    233.35203    275971.98   -5585.4553 
   39000     8000    299.76616   -3.7515081    233.37492    276072.32    -5807.339 
   39200     8000    300.27746   -3.7516095    233.39782    277854.71   -5944.7062 
   39400     8000    299.81628   -3.7515845    233.42071    276241.95   -5542.2815 
   39600     8000    299.94998   -3.7516363     233.4436    276797.77   -5393.1915 
   39800     8000    299.92258   -3.7516667    233.46649    276845.05   -5528.5559 
   40000     8000    299.02289   -3.7515817    233.48938    276250.39   -5556.9493 
   40200     8000    298.95729   -3.7516023    233.51227    277019.61   -5541.8605 
   40400     8000    299.43263     -3.75169    233.53516    276571.16    -6138.462 
   40600     8000    298.61801   -3.7516058    233.55805    277346.74   -6172.9736 
   40800     8000     298.7848    -3.751644    233.58094    276488.22   -6276.5872 
   41000     8000    299.37887   -3.7517326    233.60384    277065.47   -5960.6617 
   41200     8000    299.36267   -3.7517389    233.62673    277141.56    -6028.063 
   41400     8000    298.43549   -3.7516227    233.64962    276731.14   -5947.6407 
   41600     8000     299.0812   -3.7517046    233.67251    276961.37   -5281.4319 
   41800     8000    298.45419   -3.7516185     233.6954    278145.62   -5624.4369 
   42000     8000    297.54732   -3.7514911    233.71829    278112.62   -6295.8305 
   42200     8000    297.64941   -3.7514882    233.74118    277659.32   -6670.7013 
   42400     8000     298.3412   -3.7515564    233.76407     277144.2   -5904.6616 
   42600     8000    299.26215   -3.7516537    233.78696    278086.88   -5598.3371 
   42800     8000    297.80279   -3.7514422    233.80986    277617.24   -6180.2964 
   43000     8000    299.23907   -3.7516026    233.83275    276339.28   -6241.5405 
   43200     8000    299.32295   -3.7515878    233.85564    276604.42   -5392.8331 
   43400     8000    298.76523   -3.7514918    233.87853    276820.15   -5739.6773 
   43600     8000    298.21034   -3.7513939    233.90142    276071.94   -5551.3253 
   43800     8000    298.40341    -3.751392    233.92431    276833.64   -6121.2281 
   44000     8000      297.971   -3.7513061     233.9472     276165.8   -6450.5854 
   44200     8000    298.41201   -3.7513313    233.97009    276972.22   -6039.8614 
   44400     8000    299.44627   -3.7514313    233.99298    276599.82    -5951.858 
   44600     8000    299.22418   -3.7513671    234.01588    277203.37    -5910.918 
   44800     8000    298.94861   -3.7512942    234.03877     276954.5    -6339.387 
   45000     8000    299.52536   -3.7513281    234.06166    277005.26   -6187.8657 
   45200     8000    298.93521   -3.7512092    234.08455    277617.94   -5950.0585 
   45400     8000    299.61687   -3.7512527    234.10744    276923.44   -6381.9836 
   45600     8000    298.84672   -3.7511053    234.13033    277081.49   -7078.6714 
   45800     8000    299.05881   -3.7510814    234.15322    277111.85   -6879.0461 
   46000     8000    299.73607   -3.7511161    234.17611    277798.15   -6354.5731 
   46200     8000    300.15482   -3.7511165      234.199    279244.12   -6715.0306 
   46400     8000     300.2473   -3.7510722     234.2219    277818.36    -7137.781 
   46600     8000    300.59279   -3.7510593    234.24479     279387.7   -6571.0382 
   46800     8000    300.51489   -3.7509925    234.26768    279795.56   -5627.6631 
   47000     8000     299.9744   -3.7508672    234.29057    280151.21   -5821.6576 
   47200     8000    300.24163   -3.7508454    234.31346    280175.67   -6731.5307 
   47400     8000    300.21137   -3.7507835    234.33635    279664.95   -6472.1602 
   47600     8000    301.07183   -3.7508376    234.35924       280936   -6564.7584 
   47800     8000    301.12442   -3.7507876    234.38213    279276.22   -6362.4488 
   48000     8000    301.11958   -3.7507314    234.40502    278852.24   -6478.0914 
   48200     8000     301.0012    -3.750662    234.42792    278857.32   -7075.9541 
   48400     8000    301.18516   -3.7506319    234.45081    279839.41   -7028.7763 
   48600     8000    301.47327   -3.7506179     234.4737    278897.94    -6130.771 
   48800     8000    301.42279   -3.7505644    234.49659    278492.99   -6372.6118 
   49000     8000    301.45145   -3.7505235    234.51948    278287.15   -7108.5297 
   49200     8000    301.94334   -3.7505433    234.54237     277828.9   -6713.1187 
   49400     8000    301.93597   -3.7505028    234.56526     278663.6   -6992.3784 
   49600     8000    302.37734   -3.7505232    234.58815    278560.99   -7062.7416 
   49800     8000    301.59097   -3.7503882    234.61105     277970.7   -6732.1798 
   50000     8000    301.74416   -3.7503789    234.63394    278784.15   -6881.7036 
   50200     8000    301.32194   -3.7502995    234.65683    278275.23   -6802.4884 
   50400     8000    302.04319   -3.7503721    234.67972    278916.39   -6747.8631 
   50600     8000    301.78929   -3.7503233    234.70261    278765.67   -7260.0399 
   50800     8000    302.18684   -3.7503635     234.7255    278764.86   -7337.0166 
   51000     8000    302.31762   -3.7503748    234.74839    278543.89   -7089.6375 
   51200     8000    301.71612   -3.7502995    234.77128     277131.4   -7287.3058 
   51400     8000     301.7623   -3.7503161    234.79417    277929.12   -7222.0045 
   51600     8000    301.85991   -3.7503489    234.81707    278186.23    -6809.565 
   51800     8000    301.15526   -3.7502889    234.83996    277914.26   -6581.2643 
   52000     8000    300.84743   -3.7502914    234.86285    278307.74    -7372.218 
   52200     8000    300.49989   -3.7502978    234.88574     279918.8   -7370.4298 
   52400     8000    300.76918   -3.7503933    234.90863    280775.71   -7170.6733 
   52600     8000    300.63125   -3.7504453    234.93152    279838.41   -6741.1351 
   52800     8000    300.08482   -3.7504517    234.95441    280744.75   -6729.9589 
   53000     8000    299.62584   -3.7504721     234.9773    279464.18   -6856.7492 
   53200     8000    298.89219   -3.7504559    235.00019    279682.74   -7239.9163 
   53400     8000    298.32326   -3.7504564    235.02309    279530.47   -7243.6697 
   53600     8000    299.04036   -3.7506161    235.04598    279514.52   -6966.0908 
   53800     8000    298.61095    -3.750619    235.06887    278458.88   -7539.3105 
   54000     8000    298.38336   -3.7506369    235.09176    278144.99   -6951.8823 
   54200     8000    297.66511   -3.7505826    235.11465    278514.15   -6967.4636 
   54400     8000    296.83691   -3.7505037    235.13754    278982.77   -7205.8155 
   54600     8000    297.01602   -3.7505449    235.16043    279393.05    -7277.631 
   54800     8000     297.4677   -3.7506117    235.18332    278747.54   -7848.8688 
   55000     8000    297.26477   -3.7505837    235.20621    279910.39   -7619.4966 
   55200     8000    296.88219    -3.750525    235.22911     278222.3   -7581.7266 
   55400     8000    297.02886   -3.7505273      235.252    278138.19   -7347.5707 
   55600     8000    297.81564   -3.7506058    235.27489    278938.18   -7524.0884 
   55800     8000    297.81399   -3.7505751    235.29778    279036.99   -7178.8706 
   56000     8000    297.28875   -3.7504707    235.32067    278326.59   -7205.0777 
   56200     8000    297.50614   -3.7504561    235.34356    279206.08   -6953.1265 
   56400     8000    297.00835   -3.7503428    235.36645    279404.22   -7411.5787 
   56600     8000    297.05109   -3.7502924    235.38934    281117.02   -7493.2713 
   56800     8000    297.72744   -3.7503177    235.41223    281000.95   -8064.7243 
   57000     8000    298.64569   -3.7503674    235.43513    277616.69   -8033.3799 
   57200     8000    297.79332   -3.7501837    235.45802    278867.66    -7756.028 
   57400     8000    299.36223   -3.7503093    235.48091    279611.23   -7587.1361 
   57600     8000    299.10046   -3.7501946     235.5038    278924.26   -7295.8889 
   57800     8000    298.98792   -3.7500973    235.52669    278676.45   -7358.5718 
   58000     8000    298.95274   -3.7500085    235.54958    277999.48   -6989.6797 
   58200     8000    298.72371   -3.7498954    235.57247    278787.13     -7073.89 
   58400     8000    298.65729   -3.7498046    235.59536    278383.32   -8066.3334 
   58600     8000    299.06967   -3.7497762    235.61825    277793.12   -8568.3704 
   58800     8000     300.2366   -3.7498495    235.64115    280028.11   -8756.9879 
   59000     8000    300.36973   -3.7497945    235.66404    279041.45   -8235.0098 
   59200     8000    301.35211   -3.7498573    235.68693    278582.42   -7462.4943 
   59400     8000        300.7   -3.7497179    235.70982    280062.59   -7285.1955 
   59600     8000    300.90948   -3.7496972    235.73271    280959.81   -7481.3145 
   59800     8000    300.22731    -3.749567     235.7556    280612.35   -7586.0768 
   60000     8000    300.24723   -3.7495328    235.77849    279819.73   -7811.9945 
   60200     8000    299.97486   -3.7494654    235.80138     280384.5   -7774.0474 
   60400     8000    299.97173   -3.7494364    235.82427    280387.77   -8488.8389 
   60600     8000    300.58943   -3.7494894    235.84717    279694.42   -8722.0476 
   60800     8000    301.26063   -3.7495511    235.87006    279922.46   -7770.1368 
   61000     8000    301.35492   -3.7495433    235.89295    280109.51   -7054.2346 
   61200     8000    301.18763   -3.7495049    235.91584    280731.58   -7631.0266 
   61400     8000    300.25424   -3.7493673    235.93873    280184.26   -7606.4403 
   61600     8000     300.0084   -3.7493202    235.96162     280546.8   -7552.6706 
   61800     8000    299.79963   -3.7492798    235.98451    279813.14   -8000.2729 
   62000     8000    300.47195   -3.7493529     236.0074    281589.95   -8058.8885 
   62200     8000    300.02875   -3.7492832    236.03029    280364.66   -8521.3686 
   62400     8000    301.22494   -3.7494251    236.05319    281685.34    -8034.296 
   62600     8000    301.71185   -3.7494771    236.07608    281685.44   -7404.4222 
   62800     8000    300.42145   -3.7493018    236.09897    281774.68   -7729.7622 
   63000     8000    299.90419    -3.749227    236.12186    280063.38   -7939.2666 
   63200     8000    299.53046   -3.7491713    236.14475    280776.28   -8132.8001 
   63400     8000    299.89516   -3.7492122    236.16764    280833.53   -8173.1188 
   63600     8000    299.87834   -3.7492043    236.19053    280304.69   -8745.0059 
   63800     8000    300.98896   -3.7493418    236.21342    281478.26   -8681.2832 
   64000     8000    300.73723   -3.7493044    236.23631    279764.07   -8511.5522 
   64200     8000    300.85395   -3.7493162    236.25921     280876.1    -7837.481 
   64400     8000    300.07443   -3.7492151     236.2821    281058.84   -7524.6006 
   64600     8000    299.63256   -3.7491594    236.30499     280428.8   -7683.0986 
   64800     8000    299.27739    -3.749115    236.32788    280553.66    -8294.613 
   65000     8000    299.33729   -3.7491241    236.35077    280699.03   -8347.9085 
   65200     8000    298.76816   -3.7490537    236.37366    280059.97   -9177.0443 
   65400     8000    299.33039   -3.7491294    236.39655     280479.2   -9312.1599 
   65600     8000    299.49692    -3.749155    236.41944    279507.09   -8564.6589 
   65800     8000    300.03126   -3.7492317    236.44233    279905.06   -8260.0434 
   66000     8000    299.48677   -3.7491722    236.46523    281080.44   -7724.1661 
   66200     8000    299.08252   -3.7491347    236.48812    282790.48   -7763.2275 
   66400     8000    298.53754   -3.7490817    236.51101    279945.78   -7951.3602 
   66600     8000    298.73947   -3.7491277     236.5339    281397.15   -7806.7445 
   66800     8000    298.55249   -3.7491263    236.55679    281058.63   -7986.1408 
   67000     8000    298.65084   -3.7491638    236.57968    281756.95   -8896.3588 
   67200     8000    298.06849   -3.7491134    236.60257    282509.95   -8705.3938 
   67400     8000    299.40443   -3.7493127    236.62546    282205.68   -8301.0211 
   67600     8000    298.71281   -3.7492518    236.64835    282142.55   -8366.8553 
   67800     8000    298.12887   -3.7492043    236.67125    281750.65   -8461.3223 
   68000     8000    297.54191   -3.7491544    236.69414    282664.58   -8145.1617 
   68200     8000    297.31392   -3.7491499    236.71703    281884.95   -8365.0479 
   68400     8000    296.27188   -3.7490362    236.73992    281704.25   -8213.7299 
   68600     8000     296.4411   -3.7490746    236.76281       281935    -8289.097 
   68800     8000    296.53854   -3.7490978     236.7857    281288.47   -8478.8499 
   69000     8000    296.53831   -3.7491021    236.80859    282123.43    -8919.632 
   69200     8000    296.89073   -3.7491446    236.83148    281268.98   -8815.4733 
   69400     8000    296.24718   -3.7490512    236.85437    282127.96   -8541.9792 
   69600     8000    297.08882   -3.7491416    236.87727    281588.07   -8618.1968 
   69800     8000    296.76815   -3.7490723    236.90016    280916.45   -8798.8695 
   70000     8000    297.11356    -3.749079    236.92305    281505.08   -8736.9895 
   70200     8000    296.84437   -3.7489959    236.94594    282689.97   -8500.5147 
   70400     8000    297.13992    -3.748975    236.96883    282065.98   -8162.9483 
   70600     8000    297.06391    -3.748895    236.99172     282539.4   -8627.3442 
   70800     8000     296.8744   -3.7487869    237.01461    282603.31   -9192.0806 
   71000     8000    298.16868   -3.7488569     237.0375    280775.59   -9189.9186 
   71200     8000    297.61758   -3.7486777    237.06039    281985.32   -8830.8179 
   71400     8000     298.8246   -3.7487176    237.08329    280835.32   -8740.1746 
   71600     8000    298.54103   -3.7485595    237.10618    281405.73   -8666.7807 
   71800     8000    298.89517   -3.7484823    237.12907    281400.01   -9029.8507 
   72000     8000    299.87595   -3.7484878    237.15196    280517.26   -8907.0717 
   72200     8000    299.75749   -3.7483575    237.17485    281659.43   -8540.0117 
   72400     8000    299.54609   -3.7482246    237.19774    281172.03   -8482.8614 
   72600     8000    299.95835   -3.7481817    237.22063    280460.93   -8960.9231 
   72800     8000    300.17776   -3.7481223    237.24352    280864.14   -8868.8892 
   73000     8000    300.24645   -3.7480534    237.26641    282414.91     -8871.15 
   73200     8000    300.26934   -3.7479871    237.28931    282629.33   -8908.8543 
   73400     8000    301.62398   -3.7481009     237.3122    280466.66   -9326.3131 
   73600     8000    301.14315   -3.7479835    237.33509    280903.85   -8792.2652 
   73800     8000     300.8823   -3.7479014    237.35798    281418.72   -8629.6141 
   74000     8000    301.02976   -3.7478773    237.38087    282114.86   -8892.8995 
   74200     8000    300.98139   -3.7478323    237.40376    282099.46   -9136.3447 
   74400     8000    301.70338   -3.7478907    237.42665     282030.9   -9429.7113 
   74600     8000    301.68244   -3.7478563    237.44954    281949.47   -9312.9669 
   74800     8000    301.59976   -3.7478182    237.47243    282054.18   -8622.6885 
   75000     8000    301.60645   -3.7477963    237.49533    282813.99   -8438.7543 
   75200     8000     301.1725   -3.7477205    237.51822    283312.46   -8736.7925 
   75400     8000    301.02619    -3.747685    237.54111    283280.37   -8785.4124 
   75600     8000    300.67515    -3.747626      237.564    283605.54    -8936.894 
   75800     8000    300.76016   -3.7476258    237.58689    283534.18     -9349.02 
   76000     8000    301.76541   -3.7477463    237.60978    284948.29   -9845.8935 
   76200     8000    300.84696   -3.7476204    237.63267    283236.54   -9431.3058 
   76400     8000    301.24949   -3.7476697    237.65556    283167.07   -8727.6598 
   76600     8000    301.31679    -3.747681    237.67845    283481.52   -8832.8148 
   76800     8000    300.48804   -3.7475794    237.70135    283646.57   -8738.1092 
   77000     8000    299.74868   -3.7474926    237.72424    283410.58   -8933.5564 
   77200     8000    300.60592   -3.7476161    237.74713    283754.39    -9173.142 
   77400     8000    299.75453   -3.7475229    237.77002     283425.2   -9064.3141 
   77600     8000    299.98215   -3.7475749    237.79291    282953.02   -9242.4015 
   77800     8000    300.32787   -3.7476478     237.8158    283766.74   -9498.3321 
   78000     8000    300.38123   -3.7476887    237.83869    281151.51   -9319.9147 
   78200     8000    299.61493   -3.7476306    237.86158    282102.71   -8879.6291 
   78400     8000    299.93803   -3.7477212    237.88447    281930.94   -9038.0631 
   78600     8000    299.35064   -3.7477005    237.90737    281556.32   -9202.3895 
   78800     8000    298.35007   -3.7476328    237.93026    281462.17   -9119.8528 
   79000     8000     298.1093   -3.7476682    237.95315    281803.12   -9063.4113 
   79200     8000     297.2422   -3.7476252    237.97604    281503.94   -9306.7417 
   79400     8000    297.58714   -3.7477382    237.99893    282391.89   -9779.0632 
   79600     8000    297.33211   -3.7477697    238.02182    281079.28   -10076.716 
   79800     8000    296.95343   -3.7477792    238.04471    281771.25   -9702.1677 
   80000     8000    297.22848   -3.7478663     238.0676    281743.15   -9687.6176 
   80200     8000    296.69147   -3.7478395    238.09049    281627.18   -9192.8372 
   80400     8000    296.18004   -3.7478066    238.11339    281419.76   -8901.4858 
   80600     8000     295.7546   -3.7477751    238.13628    282184.85   -9525.7608 
   80800     8000    296.04229   -3.7478228    238.15917    282890.97   -9320.0572 
   81000     8000    295.33991   -3.7477319    238.18206    282384.24   -9363.8406 
   81200     8000    295.74431   -3.7477727    238.20495    283667.08   -9252.4515 
   81400     8000    295.67229   -3.7477412    238.22784    283151.63   -9500.9264 
   81600     8000    296.06942   -3.7477578    238.25073     282578.9   -9371.0978 
   81800     8000    295.47991    -3.747636    238.27362    284970.76   -8961.4066 
   82000     8000    295.26062   -3.7475507    238.29651    285179.73    -9198.694 
   82200     8000    296.53042   -3.7476447    238.31941    285922.83   -9576.0822 
   82400     8000    296.24335   -3.7475236     238.3423     284157.4   -9644.7683 
   82600     8000    296.48847   -3.7474579    238.36519    284823.48   -9993.4998 
   82800     8000    297.24685   -3.7474445    238.38808    283605.82   -9504.6128 
   83000     8000    297.97973   -3.7474167    238.41097    283647.57   -9003.9273 
   83200     8000    298.00301   -3.7472895    238.43386    284117.45    -9278.703 
   83400     8000    297.92683   -3.7471445    238.45675     283151.7   -9645.4299 
   83600     8000    297.70756   -3.7469828    238.47964    284841.73   -9808.0911 
   83800     8000    298.45422   -3.7469551    238.50253    283629.44   -9669.3138 
   84000     8000    298.56078   -3.7468598    238.52543    282972.67     -9407.99 
   84200     8000     299.9425    -3.746948    238.54832    283513.64   -9797.2309 
   84400     8000    299.50812   -3.7468174    238.57121    283771.97   -9739.4532 
   84600     8000    299.92545     -3.74681     238.5941    282115.19   -9826.3941 
   84800     8000    299.53023   -3.7467068    238.61699    283152.22   -8757.5409 
   85000     8000    299.55682   -3.7466667    238.63988    283127.24   -9016.6413 
   85200     8000    299.94502    -3.746677    238.66277    282743.86   -9893.0958 
   85400     8000     299.7131   -3.7466079    238.68566    282811.21   -9962.0834 
   85600     8000    300.04769   -3.7466137    238.70855    283381.85   -9838.5329 
   85800     8000    300.48628    -3.746634    238.73145    283258.38   -9977.1889 
   86000     8000    300.84759   -3.7466443    238.75434    283414.38   -10189.258 
   86200     8000    300.41193    -3.746552    238.77723    282893.23   -10148.138 
   86400     8000    300.38595   -3.7465132    238.80012    282173.11   -9396.2606 
   86600     8000    299.99411   -3.7464293    238.82301    283010.77   -9016.9357 
   86800     8000    299.19768   -3.7462945     238.8459    283723.23   -9601.4024 
   87000     8000    299.74101   -3.7463319    238.86879    283972.67   -10003.133 
   87200     8000    300.07206   -3.7463407    238.89168    283383.87   -10198.822 
   87400     8000    300.23972   -3.7463286    238.91457    284264.14   -10050.928 
   87600     8000    300.39888   -3.7463159    238.93747    285043.12   -9951.6147 
   87800     8000     300.7944   -3.7463347    238.96036    285309.26   -9712.7945 
   88000     8000     300.6645   -3.7462868    238.98325    284325.52   -9945.6629 
   88200     8000     300.4478   -3.7462281    239.00614    284732.93   -9928.2131 
   88400     8000    300.40826   -3.7461927    239.02903    284291.17   -9344.3393 
   88600     8000    300.11391   -3.7461264    239.05192    285698.37   -9071.1391 
   88800     8000    300.33682   -3.7461277    239.07481    284612.22   -9599.8264 
   89000     8000    300.26071   -3.7460894     239.0977    284515.83   -9948.5228 
   89200     8000    299.96205   -3.7460221    239.12059    284868.02   -10170.869 
   89400     8000    299.67328   -3.7459563    239.14349     284962.3    -10260.32 
   89600     8000    301.14885   -3.7461186    239.16638     284623.2   -10209.566 
   89800     8000    300.79893    -3.746045    239.18927    284167.15   -9845.4419 
   90000     8000    300.31963   -3.7459565    239.21216    284185.35   -9736.6452 
   90200     8000    300.99146   -3.7460181    239.23505    285051.02   -9486.5093 
   90400     8000    300.57593    -3.745942    239.25794    284520.08   -9480.9484 
   90600     8000    300.00821   -3.7458469    239.28083    284791.03   -9545.8253 
   90800     8000    299.87744   -3.7458091    239.30372    284395.08   -10535.669 
   91000     8000    300.61735   -3.7458826    239.32661    284903.71   -10318.977 
   91200     8000    300.50261   -3.7458474    239.34951    283940.38   -9751.8935 
   91400     8000    300.81309   -3.7458694     239.3724    284984.91   -9710.9859 
   91600     8000    300.43059   -3.7458029    239.39529    284096.52   -9825.9188 
   91800     8000    300.06219   -3.7457391    239.41818    284430.96   -9862.0477 
   92000     8000    299.74208   -3.7456828    239.44107    283669.47    -9850.666 
   92200     8000    299.93891   -3.7456952    239.46396    283955.96   -9667.6166 
   92400     8000    299.33148   -3.7456056    239.48685    286059.79    -10020.94 
   92600     8000    300.21772   -3.7457089    239.50974    284199.74   -10500.532 
   92800     8000    300.34309   -3.7457146    239.53263    283636.48   -10309.771 
   93000     8000    300.19531   -3.7456871    239.55553    283418.11   -10217.851 
   93200     8000     299.7913   -3.7456284    239.57842    283550.13   -9720.0649 
   93400     8000    299.90356   -3.7456385    239.60131    284245.47   -9214.4056 
   93600     8000    299.92212   -3.7456385     239.6242    284362.32   -9584.6925 
   93800     8000     299.4907   -3.7455803    239.64709    284169.12   -9789.9267 
   94000     8000    299.65659   -3.7455999    239.66998    286957.84   -9770.4921 
   94200     8000    298.91353   -3.7455018    239.69287    285502.99   -10220.589 
   94400     8000    298.78184   -3.7454825    239.71576    285879.42   -10296.728 
   94600     8000    298.60678   -3.7454577    239.73865    284736.24   -10203.086 
   94800     8000    299.32359   -3.7455482    239.76155    286630.61   -10203.734 
   95000     8000    298.90637   -3.7454916    239.78444    287364.54   -9431.4927 
   95200     8000    298.42726   -3.7454279    239.80733    286454.85   -9290.4511 
   95400     8000    298.24668   -3.7454018    239.83022    286013.89    -10128.13 
   95600     8000    298.75663   -3.7454614    239.85311    285554.13   -10484.093 
   95800     8000    298.58385   -3.7454305      239.876    285544.56   -10090.097 
   96000     8000    299.00042   -3.7454742    239.89889    285586.18   -9722.0638 
   96200     8000    298.56951   -3.7454061    239.92178    286255.73   -10193.862 
   96400     8000    298.65319   -3.7454008    239.94468     285959.4   -10653.193 
   96600     8000    298.28165   -3.7453318    239.96757     286945.2   -10386.205 
   96800     8000    298.35048   -3.7453163    239.99046    287026.19   -10064.931 
   97000     8000    299.08933   -3.7453835    240.01335    286799.94   -9884.2536 
   97200     8000    298.86332   -3.7453218    240.03624    286456.65   -9871.1019 
   97400     8000    298.69204   -3.7452621    240.05913    285793.78   -10279.532 
   97600     8000    298.33643   -3.7451722    240.08202    286077.77   -10480.782 
   97800     8000    298.76087   -3.7451772    240.10491     287118.7   -10559.296 
   98000     8000    299.14079   -3.7451689     240.1278    286473.92   -10424.077 
   98200     8000    299.06079   -3.7450954     240.1507    284686.55    -10372.91 
   98400     8000    299.11642   -3.7450329    240.17359     286778.3   -10654.763 
   98600     8000    299.04253   -3.7449455    240.19648     284707.7   -10365.763 
   98800     8000    299.39593   -3.7449072    240.21937       285994   -9970.2017 
   99000     8000    298.83451    -3.744746    240.24226    284539.81   -10073.225 
   99200     8000    300.41976    -3.744856    240.26515    284994.31    -10745.78 
   99400     8000    300.57247   -3.7447762    240.28804    285380.61   -10223.959 
   99600     8000    299.99312    -3.744601    240.31093    285534.99   -10193.878 
   99800     8000    301.23519   -3.7446609    240.33382    284534.62   -10189.338 
  100000     8000     300.7938   -3.7445059    240.35672     285140.3   -10068.791 
  100200     8000    301.66105   -3.7445234    240.37961    285379.76   -10392.173 
  100400     8000    301.36126   -3.7443936     240.4025    286010.36   -10239.876 
  100600     8000    301.74546    -3.744359    240.42539    286414.42   -10403.179 
  100800     8000    301.56171   -3.7442567    240.44828    288196.88   -10358.618 
  101000     8000    302.05781   -3.7442482    240.47117    286619.61   -10271.382 
  101200     8000    302.08033   -3.7441853    240.49406    287842.18   -10296.881 
  101400     8000    302.16819   -3.7441367    240.51695    287857.95   -10262.618 
  101600     8000    302.64067   -3.7441441    240.53984    287080.41   -10355.716 
  101800     8000    303.07923   -3.7441538    240.56274    286561.36   -9959.8422 
  102000     8000     302.3672   -3.7440225    240.58563    288553.66   -10449.664 
  102200     8000    302.12347   -3.7439571    240.60852    289204.25   -10285.422 
  102400     8000    301.96379   -3.7439103    240.63141    288570.66   -10531.382 
  102600     8000    301.90017   -3.7438814     240.6543    288875.41   -10106.684 
  102800     8000    302.88872    -3.743995    240.67719    289817.76   -10278.664 
  103000     8000     302.0794   -3.7438826    240.70008    288707.43   -10145.216 
  103200     8000     302.2333   -3.7439018    240.72297    287618.71   -10121.436 
  103400     8000    302.62452   -3.7439596    240.74586    288909.19   -10406.071 
  103600     8000    301.53018   -3.7438329    240.76876    287800.22   -9981.8388 
  103800     8000    300.98916   -3.7437877    240.79165    288544.11   -9981.7763 
  104000     8000    301.14713   -3.7438429    240.81454     289148.2   -10737.866 
  104200     8000    300.82748    -3.743846    240.83743    287876.22   -11050.826 
  104400     8000    300.60021   -3.7438734    240.86032    286446.37   -10690.615 
  104600     8000    300.53038   -3.7439352    240.88321    287553.62   -10346.929 
  104800     8000    300.14301   -3.7439694     240.9061    289112.05   -10279.817 
  105000     8000    299.00996   -3.7439163    240.92899    288178.13   -9862.6853 
  105200     8000    298.40027   -3.7439358    240.95188    286741.79   -10311.779 
  105400     8000    298.69333   -3.7440687    240.97478    286367.11   -10444.348 
  105600     8000    297.84555   -3.7440449    240.99767     285676.6   -10545.902 
  105800     8000    298.16834   -3.7441575    241.02056    285880.15   -10876.245 
  106000     8000    297.75557   -3.7441564    241.04345    287184.14   -10758.186 
  106200     8000    298.00326    -3.744223    241.06634    286840.96   -10379.251 
  106400     8000    297.24419   -3.7441433    241.08923    286555.47   -10439.597 
  106600     8000    297.65754   -3.7442005    241.11212    285880.53   -10508.403 
  106800     8000    297.43317   -3.7441628    241.13501    286881.26    -10549.56 
  107000     8000    296.78076   -3.7440599     241.1579    288503.83   -10502.221 
  107200     8000    296.93414   -3.7440531     241.1808    286895.03   -10518.765 
  107400     8000    297.03176   -3.7440322    241.20369     286818.2   -10476.512 
  107600     8000    296.98356   -3.7439866    241.22658    286997.63   -10629.603 
  107800     8000    297.01051   -3.7439451    241.24947    288251.81   -10188.936 
  108000     8000    297.20113   -3.7439205    241.27236    288690.18   -10093.455 
  108200     8000    296.20452    -3.743738    241.29525     288410.8   -10336.539 
  108400     8000    297.29356   -3.7438198    241.31814    289168.85   -10848.569 
  108600     8000    297.45337   -3.7437755    241.34103    287156.15   -11491.893 
  108800     8000    297.67526   -3.7437339    241.36392    289827.12   -10865.778 
  109000     8000    297.82046    -3.743679    241.38682    288283.53   -10360.486 
  109200     8000    297.79871   -3.7436005    241.40971    288921.77   -10269.352 
  109400     8000    298.11992   -3.7435631     241.4326    289610.65   -10394.913 
  109600     8000    298.08819    -3.743477    241.45549    290513.39    -10411.29 
  109800     8000    298.60799   -3.7434604    241.47838    290132.19    -10334.02 
  110000     8000    298.45661   -3.7433559    241.50127    290331.45    -10261.02 
  110200     8000    298.87769   -3.7433252    241.52416    290893.36   -10631.089 
  110400     8000    299.61753   -3.7433355    241.54705    289340.15   -11102.253 
  110600     8000    299.89696   -3.7432872    241.56994    289371.57   -10384.814 
  110800     8000    301.20799   -3.7433754    241.59284    288159.41   -9409.4573 
  111000     8000    303.41398   -3.7435876    241.61573    288588.78   -9205.9277 
  111200     8000    304.29089   -3.7436396    241.63862    288789.23   -10161.344 
  111400     8000    304.21496   -3.7435801    241.66151    288364.67   -10347.112 
  111600     8000    304.55494   -3.7435861     241.6844    287912.29   -10131.946 
  111800     8000    304.09661   -3.7435026    241.70729    287713.65   -10115.633 
  112000     8000    305.00899   -3.7436066    241.73018     288316.6   -9615.2458 
  112200     8000    305.43292   -3.7436589    241.75307    288438.88   -8913.2986 
  112400     8000    306.58721   -3.7438198    241.77596    287367.68   -9156.8151 
  112600     8000     305.9452   -3.7437639    241.79886    286828.03   -9268.3356 
  112800     8000     305.2883   -3.7437203    241.82175    286797.41   -9215.6012 
  113000     8000    304.22782   -3.7436381    241.84464    287069.36   -9513.7179 
  113200     8000    304.29655   -3.7437115    241.86753    287642.75   -10135.115 
  113400     8000    304.49174   -3.7438058    241.89042    286841.65   -10072.276 
  113600     8000    303.19381     -3.74371    241.91331    286156.57   -9608.0517 
  113800     8000    303.65467   -3.7438403     241.9362     286997.6   -9215.6963 
  114000     8000     303.5351   -3.7438905    241.95909    287004.74   -9464.2538 
  114200     8000    303.19108   -3.7439023    241.98198    287321.32   -9690.0743 
  114400     8000     303.4765   -3.7439863    242.00488    286648.32   -9753.2778 
  114600     8000    301.86004   -3.7438159    242.02777    287689.32   -9718.3259 
  114800     8000    302.42026     -3.74392    242.05066    286999.68   -9943.2879 
  115000     8000    302.08399   -3.7439031    242.07355    286944.52   -9627.5335 
  115200     8000     302.1655   -3.7439372    242.09644    287792.83   -9888.4093 
  115400     8000     301.7581   -3.7439062    242.11933    289002.09   -10067.317 
  115600     8000    301.09496   -3.7438409    242.14222    288882.44   -9689.1956 
  115800     8000    301.48754   -3.7439122    242.16511    288329.21   -9997.3283 
  116000     8000    301.40148   -3.7439203      242.188    288351.13   -9447.7997 
  116200     8000    301.75437   -3.7439864     242.2109     289026.5    -9476.158 
  116400     8000    301.19922   -3.7439353    242.23379    289863.48   -9387.2502 
  116600     8000    300.56907   -3.7438746    242.25668     289982.5   -9419.1368 
  116800     8000      300.434   -3.7438778    242.27957    290865.85     -9560.36 
  117000     8000    300.23407   -3.7438737    242.30246    290511.44   -9996.1831 
  117200     8000    300.11692   -3.7438796    242.32535    292488.56   -9528.2456 
  117400     8000    301.15755   -3.7440359    242.34824    291428.57    -9170.022 
  117600     8000    300.14986   -3.7439282    242.37113    290999.63   -9568.2657 
  117800     8000    299.49338   -3.7438643    242.39402    289691.23   -9764.6323 
  118000     8000    299.68873   -3.7439088    242.41692    290910.13   -9558.3955 
  118200     8000    298.98782   -3.7438371    242.43981     289463.2   -9686.1499 
  118400     8000    298.21639   -3.7437548     242.4627    290011.94    -10119.23 
  118600     8000    299.42364   -3.7439248    242.48559     289485.1   -10400.861 
  118800     8000    299.00129   -3.7438805    242.50848    289075.02   -10303.457 
  119000     8000    299.33221   -3.7439321    242.53137    288925.16   -10113.117 
  119200     8000    299.45736   -3.7439548    242.55426    287551.52    -10009.11 
  119400     8000    299.17864   -3.7439236    242.57715    288214.88   -9921.3793 
  119600     8000    299.28593     -3.74394    242.60004    286936.62   -9947.7167 
  119800     8000    298.99415   -3.7439024    242.62294     288710.4   -9281.7056 
  120000     8000    298.35515   -3.7438181    242.64583    287461.05   -9516.4589 
  120200     8000    297.00921    -3.743638    242.66872     288253.7   -9984.8201 
  120400     8000    298.32375   -3.7437964    242.69161    288868.88   -10338.808 
  120600     8000    298.45799   -3.7437974     242.7145    287441.65   -10214.702 
  120800     8000    298.94584   -3.7438398    242.73739    288295.28   -10277.863 
  121000     8000     299.0285   -3.7438257    242.76028    287287.85   -9575.5609 
  121200     8000    297.80422   -3.7436387    242.78317    287776.26   -9546.8505 
  121400     8000    298.37923   -3.7436783    242.80606    288399.57   -9928.5292 
  121600     8000    298.39029   -3.7436369    242.82896    289454.73   -10265.588 
  121800     8000    298.17494   -3.7435572    242.85185    288479.83   -9994.8641 
  122000     8000    297.57565   -3.7434188    242.87474    289228.89   -10273.984 
  122200     8000    298.82622   -3.7435084    242.89763    289233.06   -10002.317 
  122400     8000    299.01898     -3.74345    242.92052    289114.38   -9597.8106 
  122600     8000     301.5801   -3.7436872    242.94341    290720.88   -9685.2629 
  122800     8000    301.51614   -3.7435784     242.9663    289190.07   -10523.923 
  123000     8000     301.7323   -3.7434997    242.98919    290979.06   -9855.7029 
  123200     8000    302.41541   -3.7434792    243.01208    289631.24   -9378.5735 
  123400     8000     302.5535   -3.7433891    243.03498    289666.03    -9070.563 
  123600     8000    302.33768   -3.7432564    243.05787     291823.2   -8997.6997 
  123800     8000    302.03419   -3.7431171    243.08076    289927.99   -9511.7983 
  124000     8000    303.08106    -3.743158    243.10365     290501.6   -9436.6988 
  124200     8000    303.38431   -3.7431104    243.12654    290405.51    -9812.045 
  124400     8000    302.92935   -3.7429736    243.14943    290435.77   -9595.5114 
  124600     8000    303.87852   -3.7430278    243.17232    290218.59   -10205.759 
  124800     8000      303.147   -3.7428729    243.19521    290656.69   -10030.188 
  125000     8000    303.70186   -3.7428947     243.2181    290298.65   -9881.0427 
  125200     8000    303.32309   -3.7428053      243.241    289579.01   -9992.2956 
  125400     8000    304.32859   -3.7429046    243.26389    289177.01   -9591.0146 
  125600     8000    304.59231     -3.74292    243.28678    289149.51   -9585.7697 
  125800     8000    303.93757   -3.7428277    243.30967    288515.36   -10146.607 
  126000     8000    303.90672   -3.7428265    243.33256    289234.29   -10026.454 
  126200     8000    303.93549   -3.7428457    243.35545       289087   -9583.4339 
  126400     8000    303.76729   -3.7428534    243.37834    289982.39   -9522.0215 
  126600     8000    303.46551   -3.7428573    243.40123    288109.61   -10068.209 
  126800     8000    302.23879   -3.7427551    243.42412    286977.89   -10211.125 
  127000     8000    302.37414   -3.7428419    243.44702    289536.39   -10331.527 
  127200     8000    302.25133   -3.7429056    243.46991    289043.82   -10118.474 
  127400     8000    302.07519   -3.7429704     243.4928     287996.4    -9764.962 
  127600     8000    301.94465   -3.7430447    243.51569    289143.07   -9852.3507 
  127800     8000     301.8592    -3.743122    243.53858    289357.68   -9409.7748 
  128000     8000    302.40827   -3.7432761    243.56147       288816   -9511.6048 
  128200     8000    301.56655   -3.7432401    243.58436    288414.82   -10092.286 
  128400     8000    302.09441   -3.7433666    243.60725    288454.96   -9717.9818 
  128600     8000    301.08295    -3.743281    243.63014    288635.83   -9937.7235 
  128800     8000    301.45255   -3.7433602    243.65304    289621.59   -10020.856 
  129000     8000    301.35012   -3.7433678    243.67593    290408.01   -9422.9177 
  129200     8000    300.50843   -3.7432743    243.69882    289835.58   -9555.3997 
  129400     8000    300.05023   -3.7432247    243.72171    289846.32   -9946.0682 
  129600     8000    300.64116   -3.7433061     243.7446    289694.79   -9538.1939 
  129800     8000    299.85202   -3.7432072    243.76749    290183.39   -9534.6928 
  130000     8000    300.33677   -3.7432709    243.79038     291079.2   -9190.9957 
  130200     8000    300.05153   -3.7432347    243.81327    289344.82     -9194.15 
  130400     8000    300.19676   -3.7432533    243.83616    290600.32   -9500.7385 
  130600     8000    300.45996   -3.7432865    243.85906    288777.38   -9677.7901 
  130800     8000    300.82985   -3.7433327    243.88195    291431.14    -9735.137 
  131000     8000    299.42542   -3.7431491    243.90484    290204.97   -9574.9005 
  131200     8000    300.65888   -3.7433056    243.92773    290177.19   -9861.0256 
  131400     8000    299.53895   -3.7431568    243.95062    290810.95   -9940.2688 
  131600     8000     300.4277   -3.7432668    243.97351    290610.42    -10147.89 
  131800     8000     300.0826    -3.743217     243.9964     289807.9   -9738.4479 
  132000     8000    299.59985   -3.7431495    244.01929    290345.92   -9397.9353 
  132200     8000    299.59057   -3.7431424    244.04218    291061.98   -8939.2773 
  132400     8000    299.17145   -3.7430822    244.06508    291015.76   -9119.4495 
  132600     8000    299.35014   -3.7430981    244.08797    290386.54   -9977.3683 
  132800     8000    299.64519    -3.743126    244.11086    289554.23   -10029.625 
  133000     8000     298.9596   -3.7430267    244.13375    289918.13    -9710.312 
  133200     8000    299.10303   -3.7430331    244.15664    289075.69    -9803.163 
  133400     8000    299.55139   -3.7430776    244.17953    288390.41   -10199.547 
  133600     8000    299.06836   -3.7429998    244.20242    288731.36   -10271.165 
  133800     8000    298.99895   -3.7429726    244.22531    291162.28   -9666.0583 
  134000     8000    298.86015   -3.7429355     244.2482    290652.42    -9484.018 
  134200     8000    298.89276   -3.7429186     244.2711    289395.59   -9797.0828 
  134400     8000    298.96691   -3.7429037    244.29399    288473.91   -10220.834 
  134600     8000    299.18634   -3.7429039    244.31688    288493.99   -9514.9839 
  134800     8000    299.12795   -3.7428658    244.33977    288969.62   -9848.9677 
  135000     8000    299.00076   -3.7428142    244.36266    289092.72   -9542.2474 
  135200     8000    298.56137   -3.7427189    244.38555    289243.74   -9764.4499 
  135400     8000    299.12549   -3.7427479    244.40844       290231   -10168.027 
  135600     8000    298.71263   -3.7426448    244.43133    289087.59   -10117.796 
  135800     8000    299.68562   -3.7427155    244.45422    289632.15    -9492.679 
  136000     8000    299.20019   -3.7425926    244.47712    290963.05   -9267.5004 
  136200     8000    299.46228   -3.7425608    244.50001    289713.42   -9796.8302 
  136400     8000    299.91204    -3.742545     244.5229    291358.31   -9540.2095 
  136600     8000    299.42275   -3.7424026    244.54579    291480.53   -9817.8351 
  136800     8000    299.84397    -3.742371    244.56868    290827.54   -9872.8048 
  137000     8000    300.30868   -3.7423394    244.59157    292467.48    -10046.07 
  137200     8000    300.51501   -3.7422699    244.61446    291764.86   -10020.758 
  137400     8000    300.83765   -3.7422128    244.63735    291059.68   -10228.446 
  137600     8000    301.07665   -3.7421437    244.66024     290106.6   -9892.7992 
  137800     8000    301.62944   -3.7421168    244.68314    291365.01   -9627.0141 
  138000     8000    301.55022   -3.7420115    244.70603    291420.38   -9384.2531 
  138200     8000    301.32894   -3.7418927    244.72892    290377.81    -9915.855 
  138400     8000    302.13654    -3.741911    244.75181    291507.32   -10250.047 
  138600     8000    302.06699   -3.7418216     244.7747    289927.19   -10274.542 
  138800     8000    302.95061   -3.7418619    244.79759    290252.43   -10309.759 
  139000     8000    303.12105   -3.7418171    244.82048    291323.45   -10066.363 
  139200     8000    302.13231   -3.7416308    244.84337    291179.49   -10208.107 
  139400     8000    303.45606   -3.7417509    244.86626     291090.5   -10046.143 
  139600     8000    303.67254   -3.7417356    244.88916    290665.86   -9749.9557 
  139800     8000    303.64085   -3.7416965    244.91205    290008.65    -9806.309 
  140000     8000    303.35252   -3.7416318    244.93494    290071.98   -10171.182 
  140200     8000    302.46162    -3.741497    244.95783    289860.67   -10013.085 
  140400     8000    302.45709   -3.7414852    244.98072    290385.53   -10314.861 
  140600     8000    302.47507   -3.7414845    245.00361    290977.02   -10693.551 
  140800     8000    302.64403   -3.7415118     245.0265     289392.2    -10163.61 
  141000     8000    303.52765   -3.7416429    245.04939    289835.23   -10087.539 
  141200     8000    303.53811   -3.7416725    245.07228    290227.34   -9991.8223 
  141400     8000    302.04785   -3.7415199    245.09518    291908.65   -9430.6637 
  141600     8000    301.10042   -3.7414521    245.11807    291967.46   -10167.627 
  141800     8000     301.1572    -3.741526    245.14096    291747.04   -10137.414 
  142000     8000    300.47801   -3.7415178    245.16385    291042.48   -9754.6475 
  142200     8000    300.41041   -3.7415993    245.18674    291148.49   -10127.855 
  142400     8000    300.67173   -3.7417277    245.20963    292683.75   -10127.482 
  142600     8000     299.9287   -3.7417258    245.23252    292467.91   -10089.637 
  142800     8000    299.47704   -3.7417539    245.25541    291058.32   -10056.185 
  143000     8000    300.41502   -3.7419492     245.2783    291966.98   -9527.9495 
  143200     8000    301.69386   -3.7421763     245.3012    291485.97    -9095.648 
  143400     8000    302.51747   -3.7423339    245.32409    290868.28   -8759.7215 
  143600     8000    303.02851   -3.7424431    245.34698    290709.24   -9189.7908 
  143800     8000    303.21388   -3.7425028    245.36987    292188.48   -8281.6219 
  144000     8000    301.79166   -3.7423514    245.39276    291773.21    -8494.457 
  144200     8000    301.64703   -3.7423594    245.41565    292822.81   -8896.5276 
  144400     8000     301.2697   -3.7423321    245.43854    293684.61   -9302.0405 
  144600     8000    301.95492   -3.7424381    245.46143    292786.66   -9863.0453 
  144800     8000    301.65488   -3.7424138    245.48433    292082.58    -9096.164 
  145000     8000     302.5834   -3.7425487    245.50722    290680.88   -8494.6929 
  145200     8000    303.83353   -3.7427278    245.53011    292630.61   -8829.9809 
  145400     8000    301.90344   -3.7424995      245.553    290228.38    -8943.413 
  145600     8000    302.14325   -3.7425537    245.57589    290833.38   -8253.6134 
  145800     8000    302.03553   -3.7425678    245.59878    290859.79   -7992.4692 
  146000     8000    302.86684   -3.7427075    245.62167    290912.91   -7592.3629 
  146200     8000     303.9206   -3.7428829    245.64456    290252.05   -8366.7438 
  146400     8000    303.34857   -3.7428537    245.66745    290516.65   -8806.9143 
  146600     8000    303.11837   -3.7428736    245.69035    290930.02   -8341.8716 
  146800     8000    303.22023   -3.7429416    245.71324    290661.19    -7564.594 
  147000     8000    302.18693   -3.7428674    245.73613    293425.56   -7707.9941 
  147200     8000    301.57605   -3.7428481    245.75902    291036.89   -8161.8821 
  147400     8000    301.26754   -3.7428659    245.78191    290820.46   -7924.2314 
  147600     8000    301.54585   -3.7429583     245.8048    289727.24   -8521.8372 
  147800     8000    300.94138   -3.7429334    245.82769    290766.73   -8498.4085 
  148000     8000    300.65428   -3.7429474    245.85058    290914.69   -8893.9539 
  148200     8000     300.7848   -3.7430106    245.87347    289504.37   -8699.2435 
  148400     8000    299.70271   -3.7429133    245.89637    292013.62   -8526.0361 
  148600     8000    300.69031   -3.7430785    245.91926    291360.39   -8231.6714 
  148800     8000    300.14865   -3.7430425    245.94215     290932.8   -7698.2479 
  149000     8000    301.05035   -3.7431893    245.96504    292007.02   -8487.4855 
  149200     8000    300.19159   -3.7431028    245.98793    293218.57   -8501.3895 
  149400     8000    299.63697    -3.743052    246.01082    291460.76   -8169.1866 
  149600     8000    299.25535    -3.743021    246.03371    292053.06   -7994.3712 
  149800     8000    298.92748    -3.742993     246.0566    291473.43   -8651.6623 
  150000     8000    299.10978   -3.7430267    246.07949    290605.43   -9630.8689 
Loop time of 716.164 on 4 procs for 150000 steps with 8000 atoms

Pair  time (%) = 628.423 (87.7484)
Neigh time (%) = 13.0455 (1.82159)
Comm  time (%) = 54.8678 (7.66135)
Outpt time (%) = 0.262956 (0.0367173)
Other time (%) = 19.5649 (2.7319)

Nlocal:    2000 ave 2051 max 1913 min
Histogram: 1 0 0 0 0 0 1 0 1 1
Nghost:    459.25 ave 467 max 452 min
Histogram: 1 0 0 1 0 0 1 0 0 1
Neighs:    64758 ave 66857 max 61829 min
Histogram: 1 0 0 0 0 1 0 1 0 1

Total # of neighbors = 259032
Ave neighs/atom = 32.379
Neighbor list builds = 3852
Dangerous builds = 0
