
     Program PWSCF v.4.3.2      starts on 26Mar2012 at 17:48:35 

     This program is part of the open-source Quantum ESPRESSO suite
     for quantum simulation of materials; please cite
         "P. Giannozzi et al., J. Phys.:Condens. Matter 21 395502 (2009);
          URL http://www.quantum-espresso.org", 
     in publications or presentations arising from this work. More details at
     http://www.quantum-espresso.org/wiki/index.php/Citing_Quantum-ESPRESSO

     Current dimensions of program PWSCF are:
     Max number of different atomic species (ntypx) = 10
     Max number of k-points (npk) =  40000
     Max angular momentum in pseudopotentials (lmaxx) =  3
     Waiting for input...
     Reading input from stdin

     G-vector sticks info
     --------------------
     sticks:   dense  smooth     PW     G-vecs:    dense   smooth      PW
     Sum         871     871    265                17153    17153    2837



     bravais-lattice index     =            2
     lattice parameter (alat)  =       6.7400  a.u.
     unit-cell volume          =      76.5455 (a.u.)^3
     number of atoms/cell      =            2
     number of atomic types    =            1
     number of electrons       =         8.00
     number of Kohn-Sham states=            4
     kinetic-energy cutoff     =     140.0000  Ry
     charge density cutoff     =     560.0000  Ry
     convergence threshold     =      1.0E-06
     mixing beta               =       0.7000
     number of iterations used =            8  plain     mixing
     Exchange-correlation      =  SLA  PZ   NOGX NOGC ( 1 1 0 0 0)
     EXX-fraction              =        0.00

     celldm(1)=   6.740000  celldm(2)=   0.000000  celldm(3)=   0.000000
     celldm(4)=   0.000000  celldm(5)=   0.000000  celldm(6)=   0.000000

     crystal axes: (cart. coord. in units of alat)
               a(1) = (  -0.500000   0.000000   0.500000 )  
               a(2) = (   0.000000   0.500000   0.500000 )  
               a(3) = (  -0.500000   0.500000   0.000000 )  

     reciprocal axes: (cart. coord. in units 2 pi/alat)
               b(1) = ( -1.000000 -1.000000  1.000000 )  
               b(2) = (  1.000000  1.000000  1.000000 )  
               b(3) = ( -1.000000  1.000000 -1.000000 )  


     PseudoPot. # 1 for  C read from file:
     /home/sam/Documents/espresso-4.3.2/pseudo/C.pz-kjpaw.UPF
     MD5 check sum: 414e6e825ae75add557e798061b49a04
     Pseudo is Projector augmented-wave + core cor, Zval =  4.0
     Generated using "atomic" code by A. Dal Corso (espresso distribution)
     Shape of augmentation charge: BESSEL
     Using radial grid of 1073 points,  4 beta functions with: 
                l(1) =   0
                l(2) =   0
                l(3) =   1
                l(4) =   1
     Q(r) pseudized with 0 coefficients 


     atomic species   valence    mass     pseudopotential
        C              4.00    12.01070      C( 1.00)

     48 Sym.Ops. (with inversion)


   Cartesian axes

     site n.     atom                  positions (alat units)
         1           C   tau(   1) = (   0.0000000   0.0000000   0.0000000  )
         2           C   tau(   2) = (   0.2500000   0.2500000   0.2500000  )

     number of k points=    29
                       cart. coord. in units 2pi/alat
        k(    1) = (   0.0000000   0.0000000   0.0000000), wk =   0.0039063
        k(    2) = (  -0.1250000   0.1250000  -0.1250000), wk =   0.0312500
        k(    3) = (  -0.2500000   0.2500000  -0.2500000), wk =   0.0312500
        k(    4) = (  -0.3750000   0.3750000  -0.3750000), wk =   0.0312500
        k(    5) = (   0.5000000  -0.5000000   0.5000000), wk =   0.0156250
        k(    6) = (   0.0000000   0.2500000   0.0000000), wk =   0.0234375
        k(    7) = (  -0.1250000   0.3750000  -0.1250000), wk =   0.0937500
        k(    8) = (  -0.2500000   0.5000000  -0.2500000), wk =   0.0937500
        k(    9) = (   0.6250000  -0.3750000   0.6250000), wk =   0.0937500
        k(   10) = (   0.5000000  -0.2500000   0.5000000), wk =   0.0937500
        k(   11) = (   0.3750000  -0.1250000   0.3750000), wk =   0.0937500
        k(   12) = (   0.2500000   0.0000000   0.2500000), wk =   0.0468750
        k(   13) = (   0.0000000   0.5000000   0.0000000), wk =   0.0234375
        k(   14) = (  -0.1250000   0.6250000  -0.1250000), wk =   0.0937500
        k(   15) = (   0.7500000  -0.2500000   0.7500000), wk =   0.0937500
        k(   16) = (   0.6250000  -0.1250000   0.6250000), wk =   0.0937500
        k(   17) = (   0.5000000   0.0000000   0.5000000), wk =   0.0468750
        k(   18) = (   0.0000000   0.7500000   0.0000000), wk =   0.0234375
        k(   19) = (   0.8750000  -0.1250000   0.8750000), wk =   0.0937500
        k(   20) = (   0.7500000   0.0000000   0.7500000), wk =   0.0468750
        k(   21) = (   0.0000000  -1.0000000   0.0000000), wk =   0.0117188
        k(   22) = (  -0.2500000   0.5000000   0.0000000), wk =   0.0937500
        k(   23) = (   0.6250000  -0.3750000   0.8750000), wk =   0.1875000
        k(   24) = (   0.5000000  -0.2500000   0.7500000), wk =   0.0937500
        k(   25) = (   0.7500000  -0.2500000   1.0000000), wk =   0.0937500
        k(   26) = (   0.6250000  -0.1250000   0.8750000), wk =   0.1875000
        k(   27) = (   0.5000000   0.0000000   0.7500000), wk =   0.0937500
        k(   28) = (  -0.2500000  -1.0000000   0.0000000), wk =   0.0468750
        k(   29) = (  -0.5000000  -1.0000000   0.0000000), wk =   0.0234375

     Dense  grid:    17153 G-vectors     FFT dimensions: (  36,  36,  36)

     Largest allocated arrays     est. size (Mb)     dimensions
        Kohn-Sham Wavefunctions         0.13 Mb     (   2164,    4)
        NL pseudopotentials             0.53 Mb     (   2164,   16)
        Each V/rho on FFT grid          0.71 Mb     (  46656)
        Each G-vector array             0.13 Mb     (  17153)
        G-vector shells                 0.00 Mb     (    217)
     Largest temporary arrays     est. size (Mb)     dimensions
        Auxiliary wavefunctions         0.53 Mb     (   2164,   16)
        Each subspace H/S matrix        0.00 Mb     (  16,  16)
        Each <psi_i|beta_j> matrix      0.00 Mb     (     16,    4)
        Arrays for rho mixing           5.70 Mb     (  46656,   8)

     Initial potential from superposition of free atoms

     starting charge    7.99993, renormalised to    8.00000
     Starting wfc are    8 atomic wfcs

     total cpu time spent up to now is        1.5 secs

     per-process dynamical memory:    10.9 Mb

     Self-consistent Calculation

     iteration #  1     ecut=   140.00 Ry     beta=0.70
     Davidson diagonalization with overlap
     ethr =  1.00E-02,  avg # of iterations =  2.6

     total cpu time spent up to now is        2.5 secs

     total energy              =     -35.59397598 Ry
     Harris-Foulkes estimate   =     -35.64018032 Ry
     estimated scf accuracy    <       0.08572990 Ry

     iteration #  2     ecut=   140.00 Ry     beta=0.70
     Davidson diagonalization with overlap
     ethr =  1.07E-03,  avg # of iterations =  2.9

     total cpu time spent up to now is        3.7 secs

     total energy              =     -35.62447586 Ry
     Harris-Foulkes estimate   =     -35.62946176 Ry
     estimated scf accuracy    <       0.00987323 Ry

     iteration #  3     ecut=   140.00 Ry     beta=0.70
     Davidson diagonalization with overlap
     ethr =  1.23E-04,  avg # of iterations =  2.7

     total cpu time spent up to now is        5.0 secs

     total energy              =     -35.62719063 Ry
     Harris-Foulkes estimate   =     -35.62780957 Ry
     estimated scf accuracy    <       0.00098513 Ry

     iteration #  4     ecut=   140.00 Ry     beta=0.70
     Davidson diagonalization with overlap
     ethr =  1.23E-05,  avg # of iterations =  3.0

     total cpu time spent up to now is        6.2 secs

     total energy              =     -35.62753433 Ry
     Harris-Foulkes estimate   =     -35.62756161 Ry
     estimated scf accuracy    <       0.00006119 Ry

     iteration #  5     ecut=   140.00 Ry     beta=0.70
     Davidson diagonalization with overlap
     ethr =  7.65E-07,  avg # of iterations =  2.2

     total cpu time spent up to now is        7.2 secs

     End of self-consistent calculation

          k = 0.0000 0.0000 0.0000 (  2109 PWs)   bands (ev):

    -8.2060  13.1089  13.1089  13.1089

          k =-0.1250 0.1250-0.1250 (  2124 PWs)   bands (ev):

    -7.7746  10.7195  12.4578  12.4578

          k =-0.2500 0.2500-0.2500 (  2127 PWs)   bands (ev):

    -6.4926   6.5736  11.3679  11.3679

          k =-0.3750 0.3750-0.3750 (  2132 PWs)   bands (ev):

    -4.4207   2.5022  10.5891  10.5891

          k = 0.5000-0.5000 0.5000 (  2138 PWs)   bands (ev):

    -2.3644  -0.2547  10.3181  10.3181

          k = 0.0000 0.2500 0.0000 (  2137 PWs)   bands (ev):

    -7.6310  11.3837  11.3837  11.8313

          k =-0.1250 0.3750-0.1250 (  2127 PWs)   bands (ev):

    -6.6330   8.0721  10.2358  11.1120

          k =-0.2500 0.5000-0.2500 (  2125 PWs)   bands (ev):

    -4.8193   4.0646   9.5910   9.9470

          k = 0.6250-0.3750 0.6250 (  2138 PWs)   bands (ev):

    -2.4507   0.5971   8.9936   9.5920

          k = 0.5000-0.2500 0.5000 (  2139 PWs)   bands (ev):

    -3.2430   1.6218   8.5587  10.2085

          k = 0.3750-0.1250 0.3750 (  2141 PWs)   bands (ev):

    -5.5104   5.4116   8.7681  11.2769

          k = 0.2500 0.0000 0.2500 (  2123 PWs)   bands (ev):

    -7.0597   9.1802   9.8610  12.3563

          k = 0.0000 0.5000 0.0000 (  2141 PWs)   bands (ev):

    -5.9247   8.7109   8.9891   8.9891

          k =-0.1250 0.6250-0.1250 (  2129 PWs)   bands (ev):

    -4.3946   5.6963   7.9214   8.2603

          k = 0.7500-0.2500 0.7500 (  2136 PWs)   bands (ev):

    -2.1730   2.4129   6.4088   8.2370

          k = 0.6250-0.1250 0.6250 (  2145 PWs)   bands (ev):

    -1.4522   1.5862   5.4037   8.9117

          k = 0.5000 0.0000 0.5000 (  2135 PWs)   bands (ev):

    -3.7363   4.5225   5.5063  10.1040

          k = 0.0000 0.7500 0.0000 (  2136 PWs)   bands (ev):

    -3.1568   4.6756   7.3727   7.3727

          k = 0.8750-0.1250 0.8750 (  2146 PWs)   bands (ev):

    -1.1905   2.6038   5.7539   7.1908

          k = 0.7500 0.0000 0.7500 (  2141 PWs)   bands (ev):

     0.3473   1.5231   3.7426   7.7497

          k = 0.0000-1.0000 0.0000 (  2164 PWs)   bands (ev):

     0.5016   0.5016   6.8138   6.8138

          k =-0.2500 0.5000 0.0000 (  2139 PWs)   bands (ev):

    -5.3679   6.6934   7.6137  10.2407

          k = 0.6250-0.3750 0.8750 (  2143 PWs)   bands (ev):

    -3.3360   3.3462   6.8707   9.0354

          k = 0.5000-0.2500 0.7500 (  2162 PWs)   bands (ev):

    -1.3622   0.7770   6.8504   8.4184

          k = 0.7500-0.2500 1.0000 (  2142 PWs)   bands (ev):

    -2.6434   4.2566   6.1180   7.1574

          k = 0.6250-0.1250 0.8750 (  2153 PWs)   bands (ev):

    -0.4213   2.0739   4.7004   6.7496

          k = 0.5000 0.0000 0.7500 (  2154 PWs)   bands (ev):

    -1.2210   2.8494   4.2254   7.6335

          k =-0.2500-1.0000 0.0000 (  2154 PWs)   bands (ev):

     0.8533   0.8533   5.7835   5.7835

          k =-0.5000-1.0000 0.0000 (  2148 PWs)   bands (ev):

     1.3366   1.3366   4.7448   4.7448

!    total energy              =     -35.62754600 Ry
     Harris-Foulkes estimate   =     -35.62754504 Ry
     estimated scf accuracy    <       0.00000055 Ry

     total all-electron energy =      -151.186542 Ry

     The total energy is the sum of the following terms:

     one-electron contribution =       8.47787386 Ry
     hartree contribution      =       1.91855787 Ry
     xc contribution           =      -8.37852271 Ry
     ewald contribution        =     -25.57530229 Ry
     one-center paw contrib.   =     -12.07015274 Ry

     convergence has been achieved in   5 iterations

     Forces acting on atoms (Ry/au):

     atom    1 type  1   force =     0.00000000    0.00000000    0.00000000
     atom    2 type  1   force =     0.00000000    0.00000000    0.00000000

     Total force =     0.000000     Total SCF correction =     0.000000

     Writing output data file diamond.save

     init_run     :      1.28s CPU      1.29s WALL (       1 calls)
     electrons    :      5.43s CPU      5.69s WALL (       1 calls)
     forces       :      0.16s CPU      0.17s WALL (       1 calls)

     Called by init_run:
     wfcinit      :      0.52s CPU      0.53s WALL (       1 calls)
     potinit      :      0.06s CPU      0.05s WALL (       1 calls)

     Called by electrons:
     c_bands      :      4.12s CPU      4.31s WALL (       5 calls)
     sum_band     :      0.86s CPU      0.89s WALL (       5 calls)
     v_of_rho     :      0.07s CPU      0.07s WALL (       6 calls)
     newd         :      0.18s CPU      0.19s WALL (       6 calls)
     mix_rho      :      0.06s CPU      0.06s WALL (       5 calls)

     Called by c_bands:
     init_us_2    :      0.27s CPU      0.27s WALL (     348 calls)
     cegterg      :      3.83s CPU      3.85s WALL (     145 calls)

     Called by *egterg:
     h_psi        :      3.73s CPU      3.74s WALL (     563 calls)
     s_psi        :      0.17s CPU      0.16s WALL (     563 calls)
     g_psi        :      0.05s CPU      0.05s WALL (     389 calls)
     cdiaghg      :      0.03s CPU      0.03s WALL (     534 calls)

     Called by h_psi:
     add_vuspsi   :      0.12s CPU      0.16s WALL (     563 calls)

     General routines
     calbec       :      0.17s CPU      0.21s WALL (     737 calls)
     fft          :      0.05s CPU      0.05s WALL (      39 calls)
     fftw         :      3.55s CPU      3.54s WALL (    4456 calls)
     davcio       :      0.00s CPU      0.16s WALL (     493 calls)


     PAW routines
     PAW_pot      :      0.18s CPU      0.18s WALL (       6 calls)
     PAW_ddot     :      0.04s CPU      0.04s WALL (      21 calls)
     PAW_symme    :      0.00s CPU      0.00s WALL (      11 calls)

     PWSCF        :     7.24s CPU         7.54s WALL


   This run was terminated on:  17:48:43  26Mar2012            

=------------------------------------------------------------------------------=
   JOB DONE.
=------------------------------------------------------------------------------=
