
     Program PWSCF v.4.3.2      starts on 26Mar2012 at 17:48:43 

     This program is part of the open-source Quantum ESPRESSO suite
     for quantum simulation of materials; please cite
         "P. Giannozzi et al., J. Phys.:Condens. Matter 21 395502 (2009);
          URL http://www.quantum-espresso.org", 
     in publications or presentations arising from this work. More details at
     http://www.quantum-espresso.org/wiki/index.php/Citing_Quantum-ESPRESSO

     Current dimensions of program PWSCF are:
     Max number of different atomic species (ntypx) = 10
     Max number of k-points (npk) =  40000
     Max angular momentum in pseudopotentials (lmaxx) =  3
     Waiting for input...
     Reading input from stdin

     G-vector sticks info
     --------------------
     sticks:   dense  smooth     PW     G-vecs:    dense   smooth      PW
     Sum         871     871    265                17153    17153    2837



     bravais-lattice index     =            2
     lattice parameter (alat)  =       6.7400  a.u.
     unit-cell volume          =      76.5455 (a.u.)^3
     number of atoms/cell      =            2
     number of atomic types    =            1
     number of electrons       =         8.00
     number of Kohn-Sham states=            4
     kinetic-energy cutoff     =     140.0000  Ry
     charge density cutoff     =     560.0000  Ry
     convergence threshold     =      1.0E-06
     mixing beta               =       0.7000
     number of iterations used =            8  plain     mixing
     Exchange-correlation      =  SLA  PZ   NOGX NOGC ( 1 1 0 0 0)
     EXX-fraction              =        0.00

     celldm(1)=   6.740000  celldm(2)=   0.000000  celldm(3)=   0.000000
     celldm(4)=   0.000000  celldm(5)=   0.000000  celldm(6)=   0.000000

     crystal axes: (cart. coord. in units of alat)
               a(1) = (  -0.500000   0.000000   0.500000 )  
               a(2) = (   0.000000   0.500000   0.500000 )  
               a(3) = (  -0.500000   0.500000   0.000000 )  

     reciprocal axes: (cart. coord. in units 2 pi/alat)
               b(1) = ( -1.000000 -1.000000  1.000000 )  
               b(2) = (  1.000000  1.000000  1.000000 )  
               b(3) = ( -1.000000  1.000000 -1.000000 )  


     PseudoPot. # 1 for  C read from file:
     /home/sam/Documents/espresso-4.3.2/pseudo/C.pz-kjpaw.UPF
     MD5 check sum: 414e6e825ae75add557e798061b49a04
     Pseudo is Projector augmented-wave + core cor, Zval =  4.0
     Generated using "atomic" code by A. Dal Corso (espresso distribution)
     Shape of augmentation charge: BESSEL
     Using radial grid of 1073 points,  4 beta functions with: 
                l(1) =   0
                l(2) =   0
                l(3) =   1
                l(4) =   1
     Q(r) pseudized with 0 coefficients 


     atomic species   valence    mass     pseudopotential
        C              4.00    12.01070      C( 1.00)

     48 Sym.Ops. (with inversion)


   Cartesian axes

     site n.     atom                  positions (alat units)
         1           C   tau(   1) = (   0.0000000   0.0000000   0.0000000  )
         2           C   tau(   2) = (   0.2500000   0.2500000   0.2500000  )

     number of k points=    47
                       cart. coord. in units 2pi/alat
        k(    1) = (   0.0000000   0.0000000   0.0000000), wk =   0.0020000
        k(    2) = (  -0.1000000   0.1000000  -0.1000000), wk =   0.0160000
        k(    3) = (  -0.2000000   0.2000000  -0.2000000), wk =   0.0160000
        k(    4) = (  -0.3000000   0.3000000  -0.3000000), wk =   0.0160000
        k(    5) = (  -0.4000000   0.4000000  -0.4000000), wk =   0.0160000
        k(    6) = (   0.5000000  -0.5000000   0.5000000), wk =   0.0080000
        k(    7) = (   0.0000000   0.2000000   0.0000000), wk =   0.0120000
        k(    8) = (  -0.1000000   0.3000000  -0.1000000), wk =   0.0480000
        k(    9) = (  -0.2000000   0.4000000  -0.2000000), wk =   0.0480000
        k(   10) = (  -0.3000000   0.5000000  -0.3000000), wk =   0.0480000
        k(   11) = (   0.6000000  -0.4000000   0.6000000), wk =   0.0480000
        k(   12) = (   0.5000000  -0.3000000   0.5000000), wk =   0.0480000
        k(   13) = (   0.4000000  -0.2000000   0.4000000), wk =   0.0480000
        k(   14) = (   0.3000000  -0.1000000   0.3000000), wk =   0.0480000
        k(   15) = (   0.2000000   0.0000000   0.2000000), wk =   0.0240000
        k(   16) = (   0.0000000   0.4000000   0.0000000), wk =   0.0120000
        k(   17) = (  -0.1000000   0.5000000  -0.1000000), wk =   0.0480000
        k(   18) = (  -0.2000000   0.6000000  -0.2000000), wk =   0.0480000
        k(   19) = (   0.7000000  -0.3000000   0.7000000), wk =   0.0480000
        k(   20) = (   0.6000000  -0.2000000   0.6000000), wk =   0.0480000
        k(   21) = (   0.5000000  -0.1000000   0.5000000), wk =   0.0480000
        k(   22) = (   0.4000000   0.0000000   0.4000000), wk =   0.0240000
        k(   23) = (   0.0000000   0.6000000   0.0000000), wk =   0.0120000
        k(   24) = (  -0.1000000   0.7000000  -0.1000000), wk =   0.0480000
        k(   25) = (   0.8000000  -0.2000000   0.8000000), wk =   0.0480000
        k(   26) = (   0.7000000  -0.1000000   0.7000000), wk =   0.0480000
        k(   27) = (   0.6000000   0.0000000   0.6000000), wk =   0.0240000
        k(   28) = (   0.0000000   0.8000000   0.0000000), wk =   0.0120000
        k(   29) = (   0.9000000  -0.1000000   0.9000000), wk =   0.0480000
        k(   30) = (   0.8000000   0.0000000   0.8000000), wk =   0.0240000
        k(   31) = (   0.0000000  -1.0000000   0.0000000), wk =   0.0060000
        k(   32) = (  -0.2000000   0.4000000   0.0000000), wk =   0.0480000
        k(   33) = (  -0.3000000   0.5000000  -0.1000000), wk =   0.0960000
        k(   34) = (   0.6000000  -0.4000000   0.8000000), wk =   0.0960000
        k(   35) = (   0.5000000  -0.3000000   0.7000000), wk =   0.0480000
        k(   36) = (  -0.2000000   0.6000000   0.0000000), wk =   0.0480000
        k(   37) = (   0.7000000  -0.3000000   0.9000000), wk =   0.0960000
        k(   38) = (   0.6000000  -0.2000000   0.8000000), wk =   0.0960000
        k(   39) = (   0.5000000  -0.1000000   0.7000000), wk =   0.0960000
        k(   40) = (   0.4000000   0.0000000   0.6000000), wk =   0.0480000
        k(   41) = (   0.8000000  -0.2000000   1.0000000), wk =   0.0480000
        k(   42) = (   0.7000000  -0.1000000   0.9000000), wk =   0.0960000
        k(   43) = (   0.6000000   0.0000000   0.8000000), wk =   0.0480000
        k(   44) = (  -0.2000000  -1.0000000   0.0000000), wk =   0.0240000
        k(   45) = (   0.6000000  -0.2000000   1.0000000), wk =   0.0480000
        k(   46) = (   0.5000000  -0.1000000   0.9000000), wk =   0.0480000
        k(   47) = (  -0.4000000  -1.0000000   0.0000000), wk =   0.0240000

     Dense  grid:    17153 G-vectors     FFT dimensions: (  36,  36,  36)

     Largest allocated arrays     est. size (Mb)     dimensions
        Kohn-Sham Wavefunctions         0.13 Mb     (   2164,    4)
        NL pseudopotentials             0.53 Mb     (   2164,   16)
        Each V/rho on FFT grid          0.71 Mb     (  46656)
        Each G-vector array             0.13 Mb     (  17153)
        G-vector shells                 0.00 Mb     (    217)
     Largest temporary arrays     est. size (Mb)     dimensions
        Auxiliary wavefunctions         0.53 Mb     (   2164,   16)
        Each subspace H/S matrix        0.00 Mb     (  16,  16)
        Each <psi_i|beta_j> matrix      0.00 Mb     (     16,    4)
        Arrays for rho mixing           5.70 Mb     (  46656,   8)

     Initial potential from superposition of free atoms

     starting charge    7.99993, renormalised to    8.00000
     Starting wfc are    8 atomic wfcs

     total cpu time spent up to now is        2.1 secs

     per-process dynamical memory:    10.9 Mb

     Self-consistent Calculation

     iteration #  1     ecut=   140.00 Ry     beta=0.70
     Davidson diagonalization with overlap
     ethr =  1.00E-02,  avg # of iterations =  2.5

     total cpu time spent up to now is        3.6 secs

     total energy              =     -35.59344897 Ry
     Harris-Foulkes estimate   =     -35.63925488 Ry
     estimated scf accuracy    <       0.08500559 Ry

     iteration #  2     ecut=   140.00 Ry     beta=0.70
     Davidson diagonalization with overlap
     ethr =  1.06E-03,  avg # of iterations =  2.9

     total cpu time spent up to now is        5.5 secs

     total energy              =     -35.62525704 Ry
     Harris-Foulkes estimate   =     -35.63009976 Ry
     estimated scf accuracy    <       0.00964423 Ry

     iteration #  3     ecut=   140.00 Ry     beta=0.70
     Davidson diagonalization with overlap
     ethr =  1.21E-04,  avg # of iterations =  2.5

     total cpu time spent up to now is        7.2 secs

     total energy              =     -35.62722334 Ry
     Harris-Foulkes estimate   =     -35.62766848 Ry
     estimated scf accuracy    <       0.00070232 Ry

     iteration #  4     ecut=   140.00 Ry     beta=0.70
     Davidson diagonalization with overlap
     ethr =  8.78E-06,  avg # of iterations =  3.1

     total cpu time spent up to now is        9.4 secs

     total energy              =     -35.62759505 Ry
     Harris-Foulkes estimate   =     -35.62760310 Ry
     estimated scf accuracy    <       0.00002367 Ry

     iteration #  5     ecut=   140.00 Ry     beta=0.70
     Davidson diagonalization with overlap
     ethr =  2.96E-07,  avg # of iterations =  2.3

     total cpu time spent up to now is       11.1 secs

     End of self-consistent calculation

          k = 0.0000 0.0000 0.0000 (  2109 PWs)   bands (ev):

    -8.2072  13.1066  13.1066  13.1066

          k =-0.1000 0.1000-0.1000 (  2118 PWs)   bands (ev):

    -7.9309  11.4497  12.6609  12.6609

          k =-0.2000 0.2000-0.2000 (  2127 PWs)   bands (ev):

    -7.1067   8.2718  11.7873  11.7873

          k =-0.3000 0.3000-0.3000 (  2145 PWs)   bands (ev):

    -5.7527   4.8916  10.9995  10.9995

          k =-0.4000 0.4000-0.4000 (  2144 PWs)   bands (ev):

    -3.9324   1.7605  10.4899  10.4899

          k = 0.5000-0.5000 0.5000 (  2138 PWs)   bands (ev):

    -2.3661  -0.2560  10.3159  10.3159

          k = 0.0000 0.2000 0.0000 (  2133 PWs)   bands (ev):

    -7.8389  11.8805  11.8805  12.2682

          k =-0.1000 0.3000-0.1000 (  2134 PWs)   bands (ev):

    -7.1976   9.3795  10.9147  11.7947

          k =-0.2000 0.4000-0.2000 (  2136 PWs)   bands (ev):

    -6.0199   6.1307  10.1714  10.9295

          k =-0.3000 0.5000-0.3000 (  2130 PWs)   bands (ev):

    -4.3466   2.9411   9.7974  10.0620

          k = 0.6000-0.4000 0.6000 (  2139 PWs)   bands (ev):

    -2.4419   0.3124   9.4280   9.8272

          k = 0.5000-0.3000 0.5000 (  2137 PWs)   bands (ev):

    -3.0430   1.0630   9.1328  10.2396

          k = 0.4000-0.2000 0.4000 (  2134 PWs)   bands (ev):

    -4.9549   3.9838   9.2293  10.9691

          k = 0.3000-0.1000 0.3000 (  2135 PWs)   bands (ev):

    -6.4709   7.2429   9.7352  11.8763

          k = 0.2000 0.0000 0.2000 (  2135 PWs)   bands (ev):

    -7.4721  10.2157  10.7798  12.6345

          k = 0.0000 0.4000 0.0000 (  2137 PWs)   bands (ev):

    -6.7414   9.8829   9.8829  10.1105

          k =-0.1000 0.5000-0.1000 (  2132 PWs)   bands (ev):

    -5.7473   7.3474   9.0948   9.5070

          k =-0.2000 0.6000-0.2000 (  2133 PWs)   bands (ev):

    -4.2453   4.3965   8.4515   8.7105

          k = 0.7000-0.3000 0.7000 (  2145 PWs)   bands (ev):

    -2.3631   1.6455   7.4528   8.7762

          k = 0.6000-0.2000 0.6000 (  2151 PWs)   bands (ev):

    -1.7965   0.9711   6.7795   9.2737

          k = 0.5000-0.1000 0.5000 (  2143 PWs)   bands (ev):

    -3.6563   3.5085   6.5517  10.1215

          k = 0.4000 0.0000 0.4000 (  2133 PWs)   bands (ev):

    -5.3055   6.2222   7.1118  11.1282

          k = 0.0000 0.6000 0.0000 (  2133 PWs)   bands (ev):

    -4.9399   7.1613   8.2237   8.2237

          k =-0.1000 0.7000-0.1000 (  2134 PWs)   bands (ev):

    -3.6211   5.1930   7.1311   7.7533

          k = 0.8000-0.2000 0.8000 (  2143 PWs)   bands (ev):

    -1.8704   3.0046   5.5992   7.7502

          k = 0.7000-0.1000 0.7000 (  2150 PWs)   bands (ev):

    -0.4760   1.5239   4.4547   8.2105

          k = 0.6000 0.0000 0.6000 (  2149 PWs)   bands (ev):

    -1.9449   3.0943   4.2370   9.0629

          k = 0.0000 0.8000 0.0000 (  2136 PWs)   bands (ev):

    -2.4896   3.8256   7.1707   7.1707

          k = 0.9000-0.1000 0.9000 (  2143 PWs)   bands (ev):

    -0.9075   2.2014   6.0527   7.0547

          k = 0.8000 0.0000 0.8000 (  2147 PWs)   bands (ev):

     0.5933   1.1548   4.2961   7.4187

          k = 0.0000-1.0000 0.0000 (  2164 PWs)   bands (ev):

     0.5000   0.5000   6.8120   6.8120

          k =-0.2000 0.4000 0.0000 (  2136 PWs)   bands (ev):

    -6.3796   8.1425   8.8908  11.2256

          k =-0.3000 0.5000-0.1000 (  2129 PWs)   bands (ev):

    -5.0384   5.3211   8.0415  10.3286

          k = 0.6000-0.4000 0.8000 (  2139 PWs)   bands (ev):

    -3.2436   2.3528   7.8154   9.4562

          k = 0.5000-0.3000 0.7000 (  2146 PWs)   bands (ev):

    -1.7222   0.4175   7.8161   9.0670

          k =-0.2000 0.6000 0.0000 (  2136 PWs)   bands (ev):

    -4.5901   6.1526   7.3031   8.7871

          k = 0.7000-0.3000 0.9000 (  2142 PWs)   bands (ev):

    -2.9571   3.8075   6.4470   7.9326

          k = 0.6000-0.2000 0.8000 (  2153 PWs)   bands (ev):

    -1.1371   1.5063   5.8145   7.7650

          k = 0.5000-0.1000 0.7000 (  2145 PWs)   bands (ev):

    -1.7260   2.2443   5.3378   8.3433

          k = 0.4000 0.0000 0.6000 (  2136 PWs)   bands (ev):

    -3.5618   4.5510   5.6146   9.3317

          k = 0.8000-0.2000 1.0000 (  2147 PWs)   bands (ev):

    -2.1697   3.7452   6.3247   6.8044

          k = 0.7000-0.1000 0.9000 (  2155 PWs)   bands (ev):

    -0.3862   2.2124   4.7414   6.6863

          k = 0.6000 0.0000 0.8000 (  2150 PWs)   bands (ev):

    -0.0637   2.0232   3.7546   7.3062

          k =-0.2000-1.0000 0.0000 (  2150 PWs)   bands (ev):

     0.7332   0.7332   6.0938   6.0938

          k = 0.6000-0.2000 1.0000 (  2156 PWs)   bands (ev):

    -1.2648   3.1065   4.7793   6.7115

          k = 0.5000-0.1000 0.9000 (  2164 PWs)   bands (ev):

     0.1354   1.8681   4.4759   6.1221

          k =-0.4000-1.0000 0.0000 (  2162 PWs)   bands (ev):

     1.2259   1.2259   4.9512   4.9512

!    total energy              =     -35.62760064 Ry
     Harris-Foulkes estimate   =     -35.62760076 Ry
     estimated scf accuracy    <       0.00000028 Ry

     total all-electron energy =      -151.186597 Ry

     The total energy is the sum of the following terms:

     one-electron contribution =       8.47821661 Ry
     hartree contribution      =       1.91811056 Ry
     xc contribution           =      -8.37839682 Ry
     ewald contribution        =     -25.57530229 Ry
     one-center paw contrib.   =     -12.07022871 Ry

     convergence has been achieved in   5 iterations

     Forces acting on atoms (Ry/au):

     atom    1 type  1   force =     0.00000000    0.00000000    0.00000000
     atom    2 type  1   force =     0.00000000    0.00000000    0.00000000

     Total force =     0.000000     Total SCF correction =     0.000000

     Writing output data file diamond.save

     init_run     :      1.60s CPU      1.61s WALL (       1 calls)
     electrons    :      8.86s CPU      8.99s WALL (       1 calls)
     forces       :      0.21s CPU      0.21s WALL (       1 calls)

     Called by init_run:
     wfcinit      :      0.86s CPU      0.86s WALL (       1 calls)
     potinit      :      0.05s CPU      0.06s WALL (       1 calls)

     Called by electrons:
     c_bands      :      7.08s CPU      7.14s WALL (       5 calls)
     sum_band     :      1.33s CPU      1.37s WALL (       5 calls)
     v_of_rho     :      0.07s CPU      0.07s WALL (       6 calls)
     newd         :      0.19s CPU      0.20s WALL (       6 calls)
     mix_rho      :      0.06s CPU      0.06s WALL (       5 calls)

     Called by c_bands:
     init_us_2    :      0.44s CPU      0.45s WALL (     564 calls)
     cegterg      :      6.60s CPU      6.60s WALL (     235 calls)

     Called by *egterg:
     h_psi        :      6.29s CPU      6.30s WALL (     911 calls)
     s_psi        :      0.32s CPU      0.26s WALL (     911 calls)
     g_psi        :      0.12s CPU      0.08s WALL (     629 calls)
     cdiaghg      :      0.05s CPU      0.06s WALL (     864 calls)

     Called by h_psi:
     add_vuspsi   :      0.26s CPU      0.26s WALL (     911 calls)

     General routines
     calbec       :      0.42s CPU      0.39s WALL (    1193 calls)
     fft          :      0.06s CPU      0.05s WALL (      39 calls)
     fftw         :      5.82s CPU      5.83s WALL (    7332 calls)
     davcio       :      0.00s CPU      0.07s WALL (     799 calls)


     PAW routines
     PAW_pot      :      0.18s CPU      0.18s WALL (       6 calls)
     PAW_ddot     :      0.04s CPU      0.04s WALL (      21 calls)
     PAW_symme    :      0.00s CPU      0.00s WALL (      11 calls)

     PWSCF        :    11.08s CPU        11.48s WALL


   This run was terminated on:  17:48:54  26Mar2012            

=------------------------------------------------------------------------------=
   JOB DONE.
=------------------------------------------------------------------------------=
