
     Program PWSCF v.4.3.2      starts on 26Mar2012 at 17:48:30 

     This program is part of the open-source Quantum ESPRESSO suite
     for quantum simulation of materials; please cite
         "P. Giannozzi et al., J. Phys.:Condens. Matter 21 395502 (2009);
          URL http://www.quantum-espresso.org", 
     in publications or presentations arising from this work. More details at
     http://www.quantum-espresso.org/wiki/index.php/Citing_Quantum-ESPRESSO

     Current dimensions of program PWSCF are:
     Max number of different atomic species (ntypx) = 10
     Max number of k-points (npk) =  40000
     Max angular momentum in pseudopotentials (lmaxx) =  3
     Waiting for input...
     Reading input from stdin

     G-vector sticks info
     --------------------
     sticks:   dense  smooth     PW     G-vecs:    dense   smooth      PW
     Sum         871     871    253                17153    17153    2741



     bravais-lattice index     =            2
     lattice parameter (alat)  =       6.7400  a.u.
     unit-cell volume          =      76.5455 (a.u.)^3
     number of atoms/cell      =            2
     number of atomic types    =            1
     number of electrons       =         8.00
     number of Kohn-Sham states=            4
     kinetic-energy cutoff     =     140.0000  Ry
     charge density cutoff     =     560.0000  Ry
     convergence threshold     =      1.0E-06
     mixing beta               =       0.7000
     number of iterations used =            8  plain     mixing
     Exchange-correlation      =  SLA  PZ   NOGX NOGC ( 1 1 0 0 0)
     EXX-fraction              =        0.00

     celldm(1)=   6.740000  celldm(2)=   0.000000  celldm(3)=   0.000000
     celldm(4)=   0.000000  celldm(5)=   0.000000  celldm(6)=   0.000000

     crystal axes: (cart. coord. in units of alat)
               a(1) = (  -0.500000   0.000000   0.500000 )  
               a(2) = (   0.000000   0.500000   0.500000 )  
               a(3) = (  -0.500000   0.500000   0.000000 )  

     reciprocal axes: (cart. coord. in units 2 pi/alat)
               b(1) = ( -1.000000 -1.000000  1.000000 )  
               b(2) = (  1.000000  1.000000  1.000000 )  
               b(3) = ( -1.000000  1.000000 -1.000000 )  


     PseudoPot. # 1 for  C read from file:
     /home/sam/Documents/espresso-4.3.2/pseudo/C.pz-kjpaw.UPF
     MD5 check sum: 414e6e825ae75add557e798061b49a04
     Pseudo is Projector augmented-wave + core cor, Zval =  4.0
     Generated using "atomic" code by A. Dal Corso (espresso distribution)
     Shape of augmentation charge: BESSEL
     Using radial grid of 1073 points,  4 beta functions with: 
                l(1) =   0
                l(2) =   0
                l(3) =   1
                l(4) =   1
     Q(r) pseudized with 0 coefficients 


     atomic species   valence    mass     pseudopotential
        C              4.00    12.01070      C( 1.00)

     48 Sym.Ops. (with inversion)


   Cartesian axes

     site n.     atom                  positions (alat units)
         1           C   tau(   1) = (   0.0000000   0.0000000   0.0000000  )
         2           C   tau(   2) = (   0.2500000   0.2500000   0.2500000  )

     number of k points=    16
                       cart. coord. in units 2pi/alat
        k(    1) = (   0.0000000   0.0000000   0.0000000), wk =   0.0092593
        k(    2) = (  -0.1666667   0.1666667  -0.1666667), wk =   0.0740741
        k(    3) = (  -0.3333333   0.3333333  -0.3333333), wk =   0.0740741
        k(    4) = (   0.5000000  -0.5000000   0.5000000), wk =   0.0370370
        k(    5) = (   0.0000000   0.3333333   0.0000000), wk =   0.0555556
        k(    6) = (  -0.1666667   0.5000000  -0.1666667), wk =   0.2222222
        k(    7) = (   0.6666667  -0.3333333   0.6666667), wk =   0.2222222
        k(    8) = (   0.5000000  -0.1666667   0.5000000), wk =   0.2222222
        k(    9) = (   0.3333333   0.0000000   0.3333333), wk =   0.1111111
        k(   10) = (   0.0000000   0.6666667   0.0000000), wk =   0.0555556
        k(   11) = (   0.8333333  -0.1666667   0.8333333), wk =   0.2222222
        k(   12) = (   0.6666667   0.0000000   0.6666667), wk =   0.1111111
        k(   13) = (   0.0000000  -1.0000000   0.0000000), wk =   0.0277778
        k(   14) = (   0.6666667  -0.3333333   1.0000000), wk =   0.2222222
        k(   15) = (   0.5000000  -0.1666667   0.8333333), wk =   0.2222222
        k(   16) = (  -0.3333333  -1.0000000   0.0000000), wk =   0.1111111

     Dense  grid:    17153 G-vectors     FFT dimensions: (  36,  36,  36)

     Largest allocated arrays     est. size (Mb)     dimensions
        Kohn-Sham Wavefunctions         0.13 Mb     (   2164,    4)
        NL pseudopotentials             0.53 Mb     (   2164,   16)
        Each V/rho on FFT grid          0.71 Mb     (  46656)
        Each G-vector array             0.13 Mb     (  17153)
        G-vector shells                 0.00 Mb     (    217)
     Largest temporary arrays     est. size (Mb)     dimensions
        Auxiliary wavefunctions         0.53 Mb     (   2164,   16)
        Each subspace H/S matrix        0.00 Mb     (  16,  16)
        Each <psi_i|beta_j> matrix      0.00 Mb     (     16,    4)
        Arrays for rho mixing           5.70 Mb     (  46656,   8)

     Initial potential from superposition of free atoms

     starting charge    7.99993, renormalised to    8.00000
     Starting wfc are    8 atomic wfcs

     total cpu time spent up to now is        1.6 secs

     per-process dynamical memory:    10.9 Mb

     Self-consistent Calculation

     iteration #  1     ecut=   140.00 Ry     beta=0.70
     Davidson diagonalization with overlap
     ethr =  1.00E-02,  avg # of iterations =  2.6

     total cpu time spent up to now is        2.2 secs

     total energy              =     -35.59571175 Ry
     Harris-Foulkes estimate   =     -35.64543193 Ry
     estimated scf accuracy    <       0.09179908 Ry

     iteration #  2     ecut=   140.00 Ry     beta=0.70
     Davidson diagonalization with overlap
     ethr =  1.15E-03,  avg # of iterations =  2.9

     total cpu time spent up to now is        3.0 secs

     total energy              =     -35.62269389 Ry
     Harris-Foulkes estimate   =     -35.62722340 Ry
     estimated scf accuracy    <       0.00911643 Ry

     iteration #  3     ecut=   140.00 Ry     beta=0.70
     Davidson diagonalization with overlap
     ethr =  1.14E-04,  avg # of iterations =  2.7

     total cpu time spent up to now is        3.6 secs

     total energy              =     -35.62660371 Ry
     Harris-Foulkes estimate   =     -35.62717991 Ry
     estimated scf accuracy    <       0.00091453 Ry

     iteration #  4     ecut=   140.00 Ry     beta=0.70
     Davidson diagonalization with overlap
     ethr =  1.14E-05,  avg # of iterations =  2.9

     total cpu time spent up to now is        4.4 secs

     total energy              =     -35.62691941 Ry
     Harris-Foulkes estimate   =     -35.62694215 Ry
     estimated scf accuracy    <       0.00005390 Ry

     iteration #  5     ecut=   140.00 Ry     beta=0.70
     Davidson diagonalization with overlap
     ethr =  6.74E-07,  avg # of iterations =  2.3

     total cpu time spent up to now is        5.1 secs

     End of self-consistent calculation

          k = 0.0000 0.0000 0.0000 (  2109 PWs)   bands (ev):

    -8.2054  13.1101  13.1101  13.1101

          k =-0.1667 0.1667-0.1667 (  2121 PWs)   bands (ev):

    -7.4397   9.3907  12.0892  12.0892

          k =-0.3333 0.3333-0.3333 (  2138 PWs)   bands (ev):

    -5.1892   3.8061  10.7977  10.7977

          k = 0.5000-0.5000 0.5000 (  2138 PWs)   bands (ev):

    -2.3636  -0.2541  10.3192  10.3192

          k = 0.0000 0.3333 0.0000 (  2121 PWs)   bands (ev):

    -7.1852  10.5388  10.5388  10.9434

          k =-0.1667 0.5000-0.1667 (  2144 PWs)   bands (ev):

    -5.4291   5.9575   9.2787   9.7289

          k = 0.6667-0.3333 0.6667 (  2152 PWs)   bands (ev):

    -2.4265   1.1522   8.1654   9.1500

          k = 0.5000-0.1667 0.5000 (  2135 PWs)   bands (ev):

    -3.5115   2.6440   7.4732  10.1567

          k = 0.3333 0.0000 0.3333 (  2129 PWs)   bands (ev):

    -6.1779   7.4913   8.3075  11.7402

          k = 0.0000 0.6667 0.0000 (  2129 PWs)   bands (ev):

    -4.1891   6.0755   7.8019   7.8019

          k = 0.8333-0.1667 0.8333 (  2147 PWs)   bands (ev):

    -1.5995   3.0507   5.4449   7.4759

          k = 0.6667 0.0000 0.6667 (  2139 PWs)   bands (ev):

    -0.7477   2.3115   3.7047   8.4297

          k = 0.0000-1.0000 0.0000 (  2164 PWs)   bands (ev):

     0.5024   0.5024   6.8147   6.8147

          k = 0.6667-0.3333 1.0000 (  2134 PWs)   bands (ev):

    -3.2478   4.5519   5.8014   8.3092

          k = 0.5000-0.1667 0.8333 (  2160 PWs)   bands (ev):

    -0.6003   1.4605   5.3343   7.1699

          k =-0.3333-1.0000 0.0000 (  2158 PWs)   bands (ev):

     1.0717   1.0717   5.2769   5.2769

!    total energy              =     -35.62692838 Ry
     Harris-Foulkes estimate   =     -35.62692845 Ry
     estimated scf accuracy    <       0.00000019 Ry

     total all-electron energy =      -151.185925 Ry

     The total energy is the sum of the following terms:

     one-electron contribution =       8.47740433 Ry
     hartree contribution      =       1.92020674 Ry
     xc contribution           =      -8.37918008 Ry
     ewald contribution        =     -25.57530229 Ry
     one-center paw contrib.   =     -12.07005708 Ry

     convergence has been achieved in   5 iterations

     Forces acting on atoms (Ry/au):

     atom    1 type  1   force =     0.00000000    0.00000000    0.00000000
     atom    2 type  1   force =     0.00000000    0.00000000    0.00000000

     Total force =     0.000000     Total SCF correction =     0.000000

     Writing output data file diamond.save

     init_run     :      1.03s CPU      1.06s WALL (       1 calls)
     electrons    :      3.34s CPU      3.54s WALL (       1 calls)
     forces       :      0.14s CPU      0.14s WALL (       1 calls)

     Called by init_run:
     wfcinit      :      0.30s CPU      0.31s WALL (       1 calls)
     potinit      :      0.05s CPU      0.06s WALL (       1 calls)

     Called by electrons:
     c_bands      :      2.30s CPU      2.34s WALL (       5 calls)
     sum_band     :      0.58s CPU      0.70s WALL (       5 calls)
     v_of_rho     :      0.07s CPU      0.07s WALL (       6 calls)
     newd         :      0.19s CPU      0.20s WALL (       6 calls)
     mix_rho      :      0.06s CPU      0.06s WALL (       5 calls)

     Called by c_bands:
     init_us_2    :      0.13s CPU      0.15s WALL (     192 calls)
     cegterg      :      2.14s CPU      2.15s WALL (      80 calls)

     Called by *egterg:
     h_psi        :      2.04s CPU      2.08s WALL (     309 calls)
     s_psi        :      0.10s CPU      0.09s WALL (     309 calls)
     g_psi        :      0.02s CPU      0.03s WALL (     213 calls)
     cdiaghg      :      0.00s CPU      0.02s WALL (     293 calls)

     Called by h_psi:
     add_vuspsi   :      0.09s CPU      0.09s WALL (     309 calls)

     General routines
     calbec       :      0.14s CPU      0.14s WALL (     405 calls)
     fft          :      0.06s CPU      0.05s WALL (      39 calls)
     fftw         :      1.85s CPU      1.93s WALL (    2450 calls)
     davcio       :      0.00s CPU      0.02s WALL (     272 calls)


     PAW routines
     PAW_pot      :      0.18s CPU      0.18s WALL (       6 calls)
     PAW_ddot     :      0.04s CPU      0.04s WALL (      21 calls)
     PAW_symme    :      0.00s CPU      0.00s WALL (      11 calls)

     PWSCF        :     4.86s CPU         5.38s WALL


   This run was terminated on:  17:48:35  26Mar2012            

=------------------------------------------------------------------------------=
   JOB DONE.
=------------------------------------------------------------------------------=
