
     Program PWSCF v.4.3.2      starts on 26Mar2012 at 17:48:54 

     This program is part of the open-source Quantum ESPRESSO suite
     for quantum simulation of materials; please cite
         "P. Giannozzi et al., J. Phys.:Condens. Matter 21 395502 (2009);
          URL http://www.quantum-espresso.org", 
     in publications or presentations arising from this work. More details at
     http://www.quantum-espresso.org/wiki/index.php/Citing_Quantum-ESPRESSO

     Current dimensions of program PWSCF are:
     Max number of different atomic species (ntypx) = 10
     Max number of k-points (npk) =  40000
     Max angular momentum in pseudopotentials (lmaxx) =  3
     Waiting for input...
     Reading input from stdin

     G-vector sticks info
     --------------------
     sticks:   dense  smooth     PW     G-vecs:    dense   smooth      PW
     Sum         871     871    265                17153    17153    2891



     bravais-lattice index     =            2
     lattice parameter (alat)  =       6.7400  a.u.
     unit-cell volume          =      76.5455 (a.u.)^3
     number of atoms/cell      =            2
     number of atomic types    =            1
     number of electrons       =         8.00
     number of Kohn-Sham states=            4
     kinetic-energy cutoff     =     140.0000  Ry
     charge density cutoff     =     560.0000  Ry
     convergence threshold     =      1.0E-06
     mixing beta               =       0.7000
     number of iterations used =            8  plain     mixing
     Exchange-correlation      =  SLA  PZ   NOGX NOGC ( 1 1 0 0 0)
     EXX-fraction              =        0.00

     celldm(1)=   6.740000  celldm(2)=   0.000000  celldm(3)=   0.000000
     celldm(4)=   0.000000  celldm(5)=   0.000000  celldm(6)=   0.000000

     crystal axes: (cart. coord. in units of alat)
               a(1) = (  -0.500000   0.000000   0.500000 )  
               a(2) = (   0.000000   0.500000   0.500000 )  
               a(3) = (  -0.500000   0.500000   0.000000 )  

     reciprocal axes: (cart. coord. in units 2 pi/alat)
               b(1) = ( -1.000000 -1.000000  1.000000 )  
               b(2) = (  1.000000  1.000000  1.000000 )  
               b(3) = ( -1.000000  1.000000 -1.000000 )  


     PseudoPot. # 1 for  C read from file:
     /home/sam/Documents/espresso-4.3.2/pseudo/C.pz-kjpaw.UPF
     MD5 check sum: 414e6e825ae75add557e798061b49a04
     Pseudo is Projector augmented-wave + core cor, Zval =  4.0
     Generated using "atomic" code by A. Dal Corso (espresso distribution)
     Shape of augmentation charge: BESSEL
     Using radial grid of 1073 points,  4 beta functions with: 
                l(1) =   0
                l(2) =   0
                l(3) =   1
                l(4) =   1
     Q(r) pseudized with 0 coefficients 


     atomic species   valence    mass     pseudopotential
        C              4.00    12.01070      C( 1.00)

     48 Sym.Ops. (with inversion)


   Cartesian axes

     site n.     atom                  positions (alat units)
         1           C   tau(   1) = (   0.0000000   0.0000000   0.0000000  )
         2           C   tau(   2) = (   0.2500000   0.2500000   0.2500000  )

     number of k points=    72
                       cart. coord. in units 2pi/alat
        k(    1) = (   0.0000000   0.0000000   0.0000000), wk =   0.0011574
        k(    2) = (  -0.0833333   0.0833333  -0.0833333), wk =   0.0092593
        k(    3) = (  -0.1666667   0.1666667  -0.1666667), wk =   0.0092593
        k(    4) = (  -0.2500000   0.2500000  -0.2500000), wk =   0.0092593
        k(    5) = (  -0.3333333   0.3333333  -0.3333333), wk =   0.0092593
        k(    6) = (  -0.4166667   0.4166667  -0.4166667), wk =   0.0092593
        k(    7) = (   0.5000000  -0.5000000   0.5000000), wk =   0.0046296
        k(    8) = (   0.0000000   0.1666667   0.0000000), wk =   0.0069444
        k(    9) = (  -0.0833333   0.2500000  -0.0833333), wk =   0.0277778
        k(   10) = (  -0.1666667   0.3333333  -0.1666667), wk =   0.0277778
        k(   11) = (  -0.2500000   0.4166667  -0.2500000), wk =   0.0277778
        k(   12) = (  -0.3333333   0.5000000  -0.3333333), wk =   0.0277778
        k(   13) = (   0.5833333  -0.4166667   0.5833333), wk =   0.0277778
        k(   14) = (   0.5000000  -0.3333333   0.5000000), wk =   0.0277778
        k(   15) = (   0.4166667  -0.2500000   0.4166667), wk =   0.0277778
        k(   16) = (   0.3333333  -0.1666667   0.3333333), wk =   0.0277778
        k(   17) = (   0.2500000  -0.0833333   0.2500000), wk =   0.0277778
        k(   18) = (   0.1666667   0.0000000   0.1666667), wk =   0.0138889
        k(   19) = (   0.0000000   0.3333333   0.0000000), wk =   0.0069444
        k(   20) = (  -0.0833333   0.4166667  -0.0833333), wk =   0.0277778
        k(   21) = (  -0.1666667   0.5000000  -0.1666667), wk =   0.0277778
        k(   22) = (  -0.2500000   0.5833333  -0.2500000), wk =   0.0277778
        k(   23) = (   0.6666667  -0.3333333   0.6666667), wk =   0.0277778
        k(   24) = (   0.5833333  -0.2500000   0.5833333), wk =   0.0277778
        k(   25) = (   0.5000000  -0.1666667   0.5000000), wk =   0.0277778
        k(   26) = (   0.4166667  -0.0833333   0.4166667), wk =   0.0277778
        k(   27) = (   0.3333333   0.0000000   0.3333333), wk =   0.0138889
        k(   28) = (   0.0000000   0.5000000   0.0000000), wk =   0.0069444
        k(   29) = (  -0.0833333   0.5833333  -0.0833333), wk =   0.0277778
        k(   30) = (  -0.1666667   0.6666667  -0.1666667), wk =   0.0277778
        k(   31) = (   0.7500000  -0.2500000   0.7500000), wk =   0.0277778
        k(   32) = (   0.6666667  -0.1666667   0.6666667), wk =   0.0277778
        k(   33) = (   0.5833333  -0.0833333   0.5833333), wk =   0.0277778
        k(   34) = (   0.5000000   0.0000000   0.5000000), wk =   0.0138889
        k(   35) = (   0.0000000   0.6666667   0.0000000), wk =   0.0069444
        k(   36) = (  -0.0833333   0.7500000  -0.0833333), wk =   0.0277778
        k(   37) = (   0.8333333  -0.1666667   0.8333333), wk =   0.0277778
        k(   38) = (   0.7500000  -0.0833333   0.7500000), wk =   0.0277778
        k(   39) = (   0.6666667   0.0000000   0.6666667), wk =   0.0138889
        k(   40) = (   0.0000000   0.8333333   0.0000000), wk =   0.0069444
        k(   41) = (   0.9166667  -0.0833333   0.9166667), wk =   0.0277778
        k(   42) = (   0.8333333   0.0000000   0.8333333), wk =   0.0138889
        k(   43) = (   0.0000000  -1.0000000   0.0000000), wk =   0.0034722
        k(   44) = (  -0.1666667   0.3333333   0.0000000), wk =   0.0277778
        k(   45) = (  -0.2500000   0.4166667  -0.0833333), wk =   0.0555556
        k(   46) = (  -0.3333333   0.5000000  -0.1666667), wk =   0.0555556
        k(   47) = (   0.5833333  -0.4166667   0.7500000), wk =   0.0555556
        k(   48) = (   0.5000000  -0.3333333   0.6666667), wk =   0.0277778
        k(   49) = (  -0.1666667   0.5000000   0.0000000), wk =   0.0277778
        k(   50) = (  -0.2500000   0.5833333  -0.0833333), wk =   0.0555556
        k(   51) = (   0.6666667  -0.3333333   0.8333333), wk =   0.0555556
        k(   52) = (   0.5833333  -0.2500000   0.7500000), wk =   0.0555556
        k(   53) = (   0.5000000  -0.1666667   0.6666667), wk =   0.0555556
        k(   54) = (   0.4166667  -0.0833333   0.5833333), wk =   0.0555556
        k(   55) = (   0.3333333   0.0000000   0.5000000), wk =   0.0277778
        k(   56) = (  -0.1666667   0.6666667   0.0000000), wk =   0.0277778
        k(   57) = (   0.7500000  -0.2500000   0.9166667), wk =   0.0555556
        k(   58) = (   0.6666667  -0.1666667   0.8333333), wk =   0.0555556
        k(   59) = (   0.5833333  -0.0833333   0.7500000), wk =   0.0555556
        k(   60) = (   0.5000000   0.0000000   0.6666667), wk =   0.0277778
        k(   61) = (   0.8333333  -0.1666667   1.0000000), wk =   0.0277778
        k(   62) = (   0.7500000  -0.0833333   0.9166667), wk =   0.0555556
        k(   63) = (   0.6666667   0.0000000   0.8333333), wk =   0.0277778
        k(   64) = (  -0.1666667  -1.0000000   0.0000000), wk =   0.0138889
        k(   65) = (   0.6666667  -0.3333333   1.0000000), wk =   0.0277778
        k(   66) = (   0.5833333  -0.2500000   0.9166667), wk =   0.0555556
        k(   67) = (   0.5000000  -0.1666667   0.8333333), wk =   0.0277778
        k(   68) = (   0.6666667  -0.1666667   1.0000000), wk =   0.0277778
        k(   69) = (   0.5833333  -0.0833333   0.9166667), wk =   0.0555556
        k(   70) = (   0.5000000   0.0000000   0.8333333), wk =   0.0277778
        k(   71) = (  -0.3333333  -1.0000000   0.0000000), wk =   0.0138889
        k(   72) = (  -0.5000000  -1.0000000   0.0000000), wk =   0.0069444

     Dense  grid:    17153 G-vectors     FFT dimensions: (  36,  36,  36)

     Largest allocated arrays     est. size (Mb)     dimensions
        Kohn-Sham Wavefunctions         0.13 Mb     (   2164,    4)
        NL pseudopotentials             0.53 Mb     (   2164,   16)
        Each V/rho on FFT grid          0.71 Mb     (  46656)
        Each G-vector array             0.13 Mb     (  17153)
        G-vector shells                 0.00 Mb     (    217)
     Largest temporary arrays     est. size (Mb)     dimensions
        Auxiliary wavefunctions         0.53 Mb     (   2164,   16)
        Each subspace H/S matrix        0.00 Mb     (  16,  16)
        Each <psi_i|beta_j> matrix      0.00 Mb     (     16,    4)
        Arrays for rho mixing           5.70 Mb     (  46656,   8)

     Initial potential from superposition of free atoms

     starting charge    7.99993, renormalised to    8.00000
     Starting wfc are    8 atomic wfcs

     total cpu time spent up to now is        2.8 secs

     per-process dynamical memory:    10.9 Mb

     Self-consistent Calculation

     iteration #  1     ecut=   140.00 Ry     beta=0.70
     Davidson diagonalization with overlap
     ethr =  1.00E-02,  avg # of iterations =  2.6

     total cpu time spent up to now is        5.2 secs

     total energy              =     -35.59359799 Ry
     Harris-Foulkes estimate   =     -35.63943095 Ry
     estimated scf accuracy    <       0.08507882 Ry

     iteration #  2     ecut=   140.00 Ry     beta=0.70
     Davidson diagonalization with overlap
     ethr =  1.06E-03,  avg # of iterations =  2.9

     total cpu time spent up to now is        8.4 secs

     total energy              =     -35.62500164 Ry
     Harris-Foulkes estimate   =     -35.62991725 Ry
     estimated scf accuracy    <       0.00976207 Ry

     iteration #  3     ecut=   140.00 Ry     beta=0.70
     Davidson diagonalization with overlap
     ethr =  1.22E-04,  avg # of iterations =  2.6

     total cpu time spent up to now is       10.9 secs

     total energy              =     -35.62722539 Ry
     Harris-Foulkes estimate   =     -35.62772861 Ry
     estimated scf accuracy    <       0.00079748 Ry

     iteration #  4     ecut=   140.00 Ry     beta=0.70
     Davidson diagonalization with overlap
     ethr =  9.97E-06,  avg # of iterations =  3.0

     total cpu time spent up to now is       14.1 secs

     total energy              =     -35.62759643 Ry
     Harris-Foulkes estimate   =     -35.62761077 Ry
     estimated scf accuracy    <       0.00003357 Ry

     iteration #  5     ecut=   140.00 Ry     beta=0.70
     Davidson diagonalization with overlap
     ethr =  4.20E-07,  avg # of iterations =  2.4

     total cpu time spent up to now is       16.7 secs

     End of self-consistent calculation

          k = 0.0000 0.0000 0.0000 (  2109 PWs)   bands (ev):

    -8.2066  13.1077  13.1077  13.1077

          k =-0.0833 0.0833-0.0833 (  2118 PWs)   bands (ev):

    -8.0147  11.8956  12.7857  12.7857

          k =-0.1667 0.1667-0.1667 (  2121 PWs)   bands (ev):

    -7.4410   9.3888  12.0869  12.0869

          k =-0.2500 0.2500-0.2500 (  2127 PWs)   bands (ev):

    -6.4933   6.5727  11.3668  11.3668

          k =-0.3333 0.3333-0.3333 (  2138 PWs)   bands (ev):

    -5.1906   3.8045  10.7955  10.7955

          k =-0.4167 0.4167-0.4167 (  2129 PWs)   bands (ev):

    -3.5989   1.2915  10.4380  10.4380

          k = 0.5000-0.5000 0.5000 (  2138 PWs)   bands (ev):

    -2.3653  -0.2554  10.3170  10.3170

          k = 0.0000 0.1667 0.0000 (  2121 PWs)   bands (ev):

    -7.9507  12.1968  12.1968  12.5170

          k =-0.0833 0.2500-0.0833 (  2136 PWs)   bands (ev):

    -7.5044  10.2435  11.3956  12.1821

          k =-0.1667 0.3333-0.1667 (  2128 PWs)   bands (ev):

    -6.6814   7.5745  10.6772  11.5204

          k =-0.2500 0.4167-0.2500 (  2143 PWs)   bands (ev):

    -5.4961   4.8168  10.1735  10.7748

          k =-0.3333 0.5000-0.3333 (  2124 PWs)   bands (ev):

    -3.9898   2.2221   9.9338  10.1335

          k = 0.5833-0.4167 0.5833 (  2137 PWs)   bands (ev):

    -2.4273   0.1497   9.6835   9.9675

          k = 0.5000-0.3333 0.5000 (  2137 PWs)   bands (ev):

    -2.8969   0.7235   9.4711  10.2615

          k = 0.4167-0.2500 0.4167 (  2139 PWs)   bands (ev):

    -4.5225   3.0610   9.5228  10.7842

          k = 0.3333-0.1667 0.3333 (  2139 PWs)   bands (ev):

    -5.9302   5.7360   9.8481  11.4778

          k = 0.2500-0.0833 0.2500 (  2131 PWs)   bands (ev):

    -6.9972   8.4971  10.4374  12.2270

          k = 0.1667 0.0000 0.1667 (  2131 PWs)   bands (ev):

    -7.6955  10.8977  11.3662  12.7845

          k = 0.0000 0.3333 0.0000 (  2121 PWs)   bands (ev):

    -7.1865  10.5368  10.5368  10.9411

          k =-0.0833 0.4167-0.0833 (  2131 PWs)   bands (ev):

    -6.4914   8.4994   9.7868  10.4846

          k =-0.1667 0.5000-0.1667 (  2144 PWs)   bands (ev):

    -5.4304   5.9557   9.2767   9.7268

          k =-0.2500 0.5833-0.2500 (  2125 PWs)   bands (ev):

    -4.0332   3.4094   8.8822   9.0596

          k = 0.6667-0.3333 0.6667 (  2152 PWs)   bands (ev):

    -2.4280   1.1508   8.1635   9.1480

          k = 0.5833-0.2500 0.5833 (  2142 PWs)   bands (ev):

    -1.9778   0.6146   7.6745   9.5271

          k = 0.5000-0.1667 0.5000 (  2135 PWs)   bands (ev):

    -3.5130   2.6424   7.4714  10.1545

          k = 0.4167-0.0833 0.4167 (  2138 PWs)   bands (ev):

    -5.0031   5.1476   7.5954  10.9462

          k = 0.3333 0.0000 0.3333 (  2129 PWs)   bands (ev):

    -6.1793   7.4894   8.3057  11.7379

          k = 0.0000 0.5000 0.0000 (  2141 PWs)   bands (ev):

    -5.9254   8.7098   8.9882   8.9882

          k =-0.0833 0.5833-0.0833 (  2128 PWs)   bands (ev):

    -4.9929   6.7828   8.3990   8.4280

          k =-0.1667 0.6667-0.1667 (  2133 PWs)   bands (ev):

    -3.7169   4.5811   7.3968   8.1705

          k = 0.7500-0.2500 0.7500 (  2136 PWs)   bands (ev):

    -2.1738   2.4121   6.4079   8.2360

          k = 0.6667-0.1667 0.6667 (  2148 PWs)   bands (ev):

    -1.0362   1.0825   5.6573   8.6149

          k = 0.5833-0.0833 0.5833 (  2150 PWs)   bands (ev):

    -2.2090   2.5431   5.2447   9.2666

          k = 0.5000 0.0000 0.5000 (  2135 PWs)   bands (ev):

    -3.7370   4.5215   5.5055  10.1029

          k = 0.0000 0.6667 0.0000 (  2129 PWs)   bands (ev):

    -4.1905   6.0735   7.8000   7.8000

          k =-0.0833 0.7500-0.0833 (  2139 PWs)   bands (ev):

    -3.0423   4.5762   6.8917   7.4721

          k = 0.8333-0.1667 0.8333 (  2147 PWs)   bands (ev):

    -1.6010   3.0488   5.4433   7.4740

          k = 0.7500-0.0833 0.7500 (  2143 PWs)   bands (ev):

    -0.1851   1.7429   4.1723   7.8036

          k = 0.6667 0.0000 0.6667 (  2139 PWs)   bands (ev):

    -0.7494   2.3098   3.7034   8.4277

          k = 0.0000 0.8333 0.0000 (  2140 PWs)   bands (ev):

    -2.0240   3.2612   7.0624   7.0624

          k = 0.9167-0.0833 0.9167 (  2145 PWs)   bands (ev):

    -0.7013   1.9167   6.2543   6.9819

          k = 0.8333 0.0000 0.8333 (  2143 PWs)   bands (ev):

     0.6272   0.9559   4.8218   7.2371

          k = 0.0000-1.0000 0.0000 (  2164 PWs)   bands (ev):

     0.5008   0.5008   6.8129   6.8129

          k =-0.1667 0.3333 0.0000 (  2128 PWs)   bands (ev):

    -6.9336   9.1604   9.7883  11.7827

          k =-0.2500 0.4167-0.0833 (  2135 PWs)   bands (ev):

    -5.9913   6.7901   8.9492  11.1203

          k =-0.3333 0.5000-0.1667 (  2136 PWs)   bands (ev):

    -4.6982   4.1597   8.5645  10.3434

          k = 0.5833-0.4167 0.7500 (  2140 PWs)   bands (ev):

    -3.1239   1.7203   8.4399   9.7070

          k = 0.5000-0.3333 0.6667 (  2146 PWs)   bands (ev):

    -1.9173   0.2166   8.4448   9.4390

          k =-0.1667 0.5000 0.0000 (  2140 PWs)   bands (ev):

    -5.6772   7.4487   8.2917   9.9013

          k =-0.2500 0.5833-0.0833 (  2138 PWs)   bands (ev):

    -4.5077   5.3120   7.5538   9.1582

          k = 0.6667-0.3333 0.8333 (  2139 PWs)   bands (ev):

    -3.0293   2.9612   7.1759   8.5312

          k = 0.5833-0.2500 0.7500 (  2149 PWs)   bands (ev):

    -1.5210   1.0303   6.7771   8.4311

          k = 0.5000-0.1667 0.6667 (  2151 PWs)   bands (ev):

    -1.9798   1.5950   6.4361   8.8434

          k = 0.4167-0.0833 0.5833 (  2139 PWs)   bands (ev):

    -3.5584   3.7883   6.3508   9.5695

          k = 0.3333 0.0000 0.5000 (  2141 PWs)   bands (ev):

    -4.9395   5.9350   6.8767  10.4212

          k =-0.1667 0.6667 0.0000 (  2121 PWs)   bands (ev):

    -3.9521   5.6223   7.1468   7.9372

          k = 0.7500-0.2500 0.9167 (  2140 PWs)   bands (ev):

    -2.5899   3.9392   6.1440   7.4032

          k = 0.6667-0.1667 0.8333 (  2145 PWs)   bands (ev):

    -1.0490   2.1463   5.1775   7.4339

          k = 0.5833-0.0833 0.7500 (  2150 PWs)   bands (ev):

    -0.6810   1.8052   4.4968   7.8975

          k = 0.5000 0.0000 0.6667 (  2147 PWs)   bands (ev):

    -2.1317   3.3442   4.5120   8.6608

          k = 0.8333-0.1667 1.0000 (  2143 PWs)   bands (ev):

    -1.8067   3.2740   6.4588   6.7182

          k = 0.7500-0.0833 0.9167 (  2150 PWs)   bands (ev):

    -0.3334   2.0488   5.0682   6.6922

          k = 0.6667 0.0000 0.8333 (  2141 PWs)   bands (ev):

     0.4566   1.5664   3.8572   7.1392

          k =-0.1667-1.0000 0.0000 (  2146 PWs)   bands (ev):

     0.6657   0.6657   6.2892   6.2892

          k = 0.6667-0.3333 1.0000 (  2134 PWs)   bands (ev):

    -3.2493   4.5501   5.7998   8.3074

          k = 0.5833-0.2500 0.9167 (  2153 PWs)   bands (ev):

    -1.7349   2.7795   5.3454   7.5068

          k = 0.5000-0.1667 0.8333 (  2160 PWs)   bands (ev):

    -0.6020   1.4591   5.3327   7.1682

          k = 0.6667-0.1667 1.0000 (  2161 PWs)   bands (ev):

    -1.1845   3.0766   5.2152   6.2953

          k = 0.5833-0.0833 0.9167 (  2163 PWs)   bands (ev):

     0.2122   1.9624   4.4197   6.0037

          k = 0.5000 0.0000 0.8333 (  2158 PWs)   bands (ev):

    -0.2908   2.3893   4.1253   6.5470

          k =-0.3333-1.0000 0.0000 (  2158 PWs)   bands (ev):

     1.0700   1.0700   5.2754   5.2754

          k =-0.5000-1.0000 0.0000 (  2148 PWs)   bands (ev):

     1.3356   1.3356   4.7441   4.7441

!    total energy              =     -35.62760531 Ry
     Harris-Foulkes estimate   =     -35.62760433 Ry
     estimated scf accuracy    <       0.00000049 Ry

     total all-electron energy =      -151.186602 Ry

     The total energy is the sum of the following terms:

     one-electron contribution =       8.47817500 Ry
     hartree contribution      =       1.91810800 Ry
     xc contribution           =      -8.37838012 Ry
     ewald contribution        =     -25.57530229 Ry
     one-center paw contrib.   =     -12.07020590 Ry

     convergence has been achieved in   5 iterations

     Forces acting on atoms (Ry/au):

     atom    1 type  1   force =     0.00000000    0.00000000    0.00000000
     atom    2 type  1   force =     0.00000000    0.00000000    0.00000000

     Total force =     0.000000     Total SCF correction =     0.000000

     Writing output data file diamond.save

     init_run     :      2.14s CPU      2.34s WALL (       1 calls)
     electrons    :     13.65s CPU     13.96s WALL (       1 calls)
     forces       :      0.27s CPU      0.29s WALL (       1 calls)

     Called by init_run:
     wfcinit      :      1.38s CPU      1.53s WALL (       1 calls)
     potinit      :      0.06s CPU      0.06s WALL (       1 calls)

     Called by electrons:
     c_bands      :     11.20s CPU     11.46s WALL (       5 calls)
     sum_band     :      1.99s CPU      2.02s WALL (       5 calls)
     v_of_rho     :      0.07s CPU      0.07s WALL (       6 calls)
     newd         :      0.20s CPU      0.20s WALL (       6 calls)
     mix_rho      :      0.05s CPU      0.06s WALL (       5 calls)

     Called by c_bands:
     init_us_2    :      0.65s CPU      0.71s WALL (     864 calls)
     cegterg      :     10.45s CPU     10.43s WALL (     360 calls)

     Called by *egterg:
     h_psi        :      9.92s CPU      9.86s WALL (    1404 calls)
     s_psi        :      0.37s CPU      0.40s WALL (    1404 calls)
     g_psi        :      0.09s CPU      0.12s WALL (     972 calls)
     cdiaghg      :      0.10s CPU      0.11s WALL (    1332 calls)

     Called by h_psi:
     add_vuspsi   :      0.46s CPU      0.43s WALL (    1404 calls)

     General routines
     calbec       :      0.76s CPU      0.70s WALL (    1836 calls)
     fft          :      0.05s CPU      0.05s WALL (      39 calls)
     fftw         :      8.83s CPU      8.86s WALL (   11156 calls)
     davcio       :      0.00s CPU      0.42s WALL (    1224 calls)


     PAW routines
     PAW_pot      :      0.18s CPU      0.19s WALL (       6 calls)
     PAW_ddot     :      0.04s CPU      0.04s WALL (      21 calls)
     PAW_symme    :      0.00s CPU      0.00s WALL (      11 calls)

     PWSCF        :    16.54s CPU        17.25s WALL


   This run was terminated on:  17:49:11  26Mar2012            

=------------------------------------------------------------------------------=
   JOB DONE.
=------------------------------------------------------------------------------=
